 Gaussian 16, Revision A.03,
 Gaussian 16:  ES64L-G16RevA.03 25-Dec-2016

 --------------------------------------
 #P UB3LYP/6-311++G(d,p) nosym opt freq
 --------------------------------------

 --------
 Oxidized
 --------
 Symbolic Z-matrix:
 Charge =  0 Multiplicity = 1

 SCF Done:  E(UB3LYP) =  -669.270248480     A.U. after   16 cycles
 Optimization completed.
    -- Stationary point found.
 Normal termination of Gaussian 16 at Mon Jan  8 01:23:14 2024.

 ----------------------------------------------------------------------
 #P Geom=AllCheck Guess=TCheck SCRF=Check GenChk UB3LYP/6-311++G(d,p) F
 req
 ----------------------------------------------------------------------

 Structure from the checkpoint file:  "274.chk"
 --------
 Oxidized
 --------
 Charge =  0 Multiplicity = 1

                          Input orientation:
 ---------------------------------------------------------------------
 Center     Atomic      Atomic             Coordinates (Angstroms)
 Number     Number       Type             X           Y           Z
 ---------------------------------------------------------------------
      1          6           0       -1.704414    3.098192    0.215945
      2          6           0       -2.889573    2.385655    0.069795
      3          6           0       -2.855154    1.005070   -0.141013
      4          6           0       -0.475666    2.433753    0.140512
      5          6           0       -0.443305    1.048284   -0.072126
      6          6           0       -1.635559    0.337691   -0.208796
      7          6           0        0.778652    3.214468    0.330857
      8          6           0        2.096422    2.501752    0.089607
      9          6           0        2.078178    1.141599   -0.078661
     10          6           0        0.869743    0.338222   -0.155974
     11          8           0        0.739443    4.371420    0.712097
     12          8           0        0.918434   -0.876954   -0.325692
     13          7           0        3.258016    3.221285    0.193703
     14          6           0        3.402847    4.592560   -0.307296
     15          6           0        4.519336    2.498024    0.267665
     16          1           0       -1.710441    4.166745    0.391350
     17          1           0       -3.840747    2.902855    0.123775
     18          1           0       -3.780865    0.451350   -0.250799
     19          1           0       -1.582526   -0.732484   -0.367065
     20          1           0        2.991622    0.576936   -0.206225
     21          1           0        2.440017    5.078383   -0.397720
     22          1           0        3.904558    4.581210   -1.284186
     23          1           0        4.014179    5.171358    0.389535
     24          1           0        4.456986    1.701022    1.010358
     25          1           0        5.299720    3.195925    0.573205
     26          1           0        4.808996    2.057471   -0.697225
 ---------------------------------------------------------------------

 SCF Done:  E(UB3LYP) =  -669.270248480     A.U. after    1 cycles

 Alpha  occ. eigenvalues --  -19.13457 -19.10656 -14.36539 -10.28761 -10.26072
 Alpha  occ. eigenvalues --  -10.24888 -10.21861 -10.21115 -10.20440 -10.20093
 Alpha  occ. eigenvalues --  -10.19768 -10.19661 -10.19605 -10.19204 -10.18296
 Alpha  occ. eigenvalues --   -1.07130  -1.03798  -0.97554  -0.88581  -0.82581
 Alpha  occ. eigenvalues --   -0.77461  -0.77309  -0.74246  -0.71111  -0.67407
 Alpha  occ. eigenvalues --   -0.64206  -0.61448  -0.58475  -0.54524  -0.53812
 Alpha  occ. eigenvalues --   -0.51542  -0.49220  -0.49160  -0.47558  -0.46281
 Alpha  occ. eigenvalues --   -0.44839  -0.44525  -0.44405  -0.43147  -0.42910
 Alpha  occ. eigenvalues --   -0.41954  -0.41369  -0.40606  -0.39548  -0.38074
 Alpha  occ. eigenvalues --   -0.37544  -0.36588  -0.32795  -0.28221  -0.27974
 Alpha  occ. eigenvalues --   -0.27367  -0.26017  -0.23246
 Alpha virt. eigenvalues --   -0.11327  -0.05062  -0.02495  -0.01499  -0.00509
 Alpha virt. eigenvalues --    0.00748   0.01535   0.01642   0.01918   0.03001
 Alpha virt. eigenvalues --    0.03384   0.03684   0.04201   0.04486   0.04900

  Beta  occ. eigenvalues --  -19.13457 -19.10656 -14.36539 -10.28761 -10.26072
  Beta  occ. eigenvalues --  -10.24888 -10.21861 -10.21115 -10.20440 -10.20093
  Beta  occ. eigenvalues --  -10.19768 -10.19661 -10.19605 -10.19204 -10.18296
  Beta  occ. eigenvalues --   -1.07130  -1.03798  -0.97554  -0.88581  -0.82581
  Beta  occ. eigenvalues --   -0.77461  -0.77309  -0.74246  -0.71111  -0.67407
  Beta  occ. eigenvalues --   -0.64206  -0.61448  -0.58475  -0.54524  -0.53812
  Beta  occ. eigenvalues --   -0.51542  -0.49220  -0.49160  -0.47558  -0.46281
  Beta  occ. eigenvalues --   -0.44839  -0.44525  -0.44405  -0.43147  -0.42910
  Beta  occ. eigenvalues --   -0.41954  -0.41369  -0.40606  -0.39548  -0.38074
  Beta  occ. eigenvalues --   -0.37544  -0.36588  -0.32795  -0.28221  -0.27974
  Beta  occ. eigenvalues --   -0.27367  -0.26017  -0.23246
  Beta virt. eigenvalues --   -0.11327  -0.05062  -0.02495  -0.01499  -0.00509
  Beta virt. eigenvalues --    0.00748   0.01535   0.01642   0.01918   0.03001
  Beta virt. eigenvalues --    0.03384   0.03684   0.04201   0.04486   0.04900

 Mulliken charges and spin densities:
               1          2
     1  C    0.166699  -0.000000
     2  C   -0.358554  -0.000000
     3  C   -0.333546  -0.000000
     4  C    0.651704   0.000000
     5  C    0.464196   0.000000
     6  C    0.141760  -0.000000
     7  C   -1.098565  -0.000000
     8  C   -0.423420   0.000000
     9  C    0.468813   0.000000
    10  C   -0.465490  -0.000000
    11  O   -0.210165  -0.000000
    12  O   -0.259083  -0.000000
    13  N    0.116299  -0.000000
    14  C   -0.412079  -0.000000
    15  C   -0.371049  -0.000000
    16  H    0.179713   0.000000
    17  H    0.177415  -0.000000
    18  H    0.177247   0.000000
    19  H    0.184585   0.000000
    20  H    0.211017   0.000000
    21  H    0.179342   0.000000
    22  H    0.152216   0.000000
    23  H    0.171242   0.000000
    24  H    0.162287  -0.000000
    25  H    0.154568   0.000000
    26  H    0.172847  -0.000000
 Sum of Mulliken charges =  -0.00000  -0.00000

 Dipole moment (field-independent basis, Debye):
    X=              0.9953    Y=              2.4717    Z=             -0.5444  Tot=              2.7196
 Quadrupole moment (field-independent basis, Debye-Ang):
   XX=            -62.8939   YY=            -89.7301   ZZ=            -91.0026
   XY=              9.6421   XZ=             -0.0699   YZ=             -5.0643

  Exact polarizability: 215.754  26.364 189.141   1.058  12.240  88.699
 Approx polarizability: 294.988  38.247 373.397   5.144  35.611 142.439

                      1                      2                      3
                      A                      A                      A
 Frequencies --     40.5313                75.1770                94.8332
 Red. masses --      5.4500                 2.4677                 1.4547
 Frc consts  --      0.0053                 0.0082                 0.0077
 IR Inten    --      6.4590                 6.1176                 2.3656

                      4                      5                      6
                      A                      A                      A
 Frequencies --    118.1821               141.9326               187.6465
 Red. masses --      4.4852                 3.9223                 4.1497
 Frc consts  --      0.0369                 0.0466                 0.0861
 IR Inten    --      0.0594                 2.9230                 0.9938

                      7                      8                      9
                      A                      A                      A
 Frequencies --    205.0476               240.3554               258.4241
 Red. masses --      2.4827                 1.9239                 2.2133
 Frc consts  --      0.0615                 0.0655                 0.0871
 IR Inten    --      1.0396                 8.6557                 5.3592

                     10                     11                     12
                      A                      A                      A
 Frequencies --    298.2928               325.4249               378.0118
 Red. masses --      4.1834                 3.4381                 5.9864
 Frc consts  --      0.2193                 0.2145                 0.5040
 IR Inten    --      0.5954                 2.1063                14.1181

                     13                     14                     15
                      A                      A                      A
 Frequencies --    402.4604               411.9555               451.0868
 Red. masses --      5.1016                 3.6336                 5.1184
 Frc consts  --      0.4869                 0.3633                 0.6136
 IR Inten    --      8.6380                 1.8317                 1.7609

                     16                     17                     18
                      A                      A                      A
 Frequencies --    459.5306               478.8815               516.0192
 Red. masses --      3.8923                 6.9604                 3.9259
 Frc consts  --      0.4843                 0.9405                 0.6159
 IR Inten    --      3.8659                 2.7157                 2.7928

                     19                     20                     21
                      A                      A                      A
 Frequencies --    538.4927               644.6007               678.6380
 Red. masses --      4.4963                 6.0845                 3.8209
 Frc consts  --      0.7682                 1.4896                 1.0368
 IR Inten    --      3.1781                 8.0783                 3.3675

                     22                     23                     24
                      A                      A                      A
 Frequencies --    697.9051               719.4377               738.0530
 Red. masses --      5.7968                 6.2220                 2.9003
 Frc consts  --      1.6635                 1.8974                 0.9308
 IR Inten    --      0.7306                 1.5044                36.2661

                     25                     26                     27
                      A                      A                      A
 Frequencies --    785.7395               814.2511               826.0340
 Red. masses --      2.0103                 3.2399                 4.8007
 Frc consts  --      0.7312                 1.2656                 1.9300
 IR Inten    --     35.2563                17.2318                 4.0302

                     28                     29                     30
                      A                      A                      A
 Frequencies --    865.6381               868.5559               913.9462
 Red. masses --      2.5533                 2.2964                 1.3776
 Frc consts  --      1.1273                 1.0207                 0.6780
 IR Inten    --     20.8662                 7.6326                 0.2632

                     31                     32                     33
                      A                      A                      A
 Frequencies --    997.3826              1002.9693              1014.8025
 Red. masses --      1.4111                 3.6069                 1.3220
 Frc consts  --      0.8270                 2.1378                 0.8022
 IR Inten    --      5.2980               135.3861                 0.3431

                     34                     35                     36
                      A                      A                      A
 Frequencies --   1054.9426              1073.1567              1101.6765
 Red. masses --      2.0667                 1.5288                 3.0350
 Frc consts  --      1.3552                 1.0373                 2.1703
 IR Inten    --      0.6605                24.6947                16.8656

                     37                     38                     39
                      A                      A                      A
 Frequencies --   1117.3885              1140.8439              1157.0450
 Red. masses --      1.2638                 1.9637                 1.4551
 Frc consts  --      0.9297                 1.5058                 1.1478
 IR Inten    --      4.7986                18.1492                98.7605

                     40                     41                     42
                      A                      A                      A
 Frequencies --   1168.5088              1183.7723              1225.3954
 Red. masses --      1.7585                 1.1739                 2.3432
 Frc consts  --      1.4147                 0.9692                 2.0731
 IR Inten    --     63.1237                 1.3745                15.2742

                     43                     44                     45
                      A                      A                      A
 Frequencies --   1248.9153              1288.9271              1316.9882
 Red. masses --      2.2414                 2.3155                 2.5942
 Frc consts  --      2.0598                 2.2665                 2.6511
 IR Inten    --     16.9944               127.9198               314.6446

                     46                     47                     48
                      A                      A                      A
 Frequencies --   1356.0399              1364.9764              1412.7948
 Red. masses --      3.5944                 4.1352                 3.4062
 Frc consts  --      3.8942                 4.5394                 4.0057
 IR Inten    --      6.2823                31.3122                55.7730

                     49                     50                     51
                      A                      A                      A
 Frequencies --   1445.7600              1467.4537              1481.9915
 Red. masses --      1.1424                 1.2458                 2.3498
 Frc consts  --      1.4069                 1.5806                 3.0407
 IR Inten    --      2.3079                15.9654                 0.4308

                     52                     53                     54
                      A                      A                      A
 Frequencies --   1489.8297              1494.0587              1506.3644
 Red. masses --      1.0584                 1.0564                 2.5158
 Frc consts  --      1.3842                 1.3894                 3.3634
 IR Inten    --     13.1886                 6.7995                12.0449

                     55                     56                     57
                      A                      A                      A
 Frequencies --   1510.6909              1521.2757              1603.3189
 Red. masses --      1.0488                 1.2089                 5.3372
 Frc consts  --      1.4102                 1.6484                 8.0836
 IR Inten    --     15.2144                 1.0732               311.1031

                     58                     59                     60
                      A                      A                      A
 Frequencies --   1624.4709              1628.6937              1688.6476
 Red. masses --      6.9926                 5.9454                10.3847
 Frc consts  --     10.8720                 9.2921                17.4471
 IR Inten    --     84.3191               149.6339               247.8510

                     61                     62                     63
                      A                      A                      A
 Frequencies --   1724.9452              2980.1643              2992.1972
 Red. masses --     11.9701                 1.0535                 1.0553
 Frc consts  --     20.9845                 5.5127                 5.5667
 IR Inten    --    221.2778                37.5823               114.8538

                     64                     65                     66
                      A                      A                      A
 Frequencies --   3069.7472              3077.5126              3119.6574
 Red. masses --      1.0898                 1.0791                 1.1043
 Frc consts  --      6.0507                 6.0217                 6.3320
 IR Inten    --     34.3945                23.2909                14.0116

                     67                     68                     69
                      A                      A                      A
 Frequencies --   3168.7817              3183.4300              3199.0008
 Red. masses --      1.0869                 1.0917                 1.0925
 Frc consts  --      6.4300                 6.5187                 6.5874
 IR Inten    --      3.8131                11.0599                 1.2228

                     70                     71                     72
                      A                      A                      A
 Frequencies --   3201.8401              3204.9016              3207.9039
 Red. masses --      1.0948                 1.0933                 1.0893
 Frc consts  --      6.6125                 6.6163                 6.6042
 IR Inten    --     10.6730                 3.4533                 4.5949

 - Thermochemistry -
 -------------------
 Temperature   298.150 Kelvin.  Pressure   1.00000 Atm.
 Atom     1 has atomic number  6 and mass  12.00000

 Molecular mass:   201.07898 amu.
 Principal axes and moments of inertia in atomic units:
                           1         2         3
     Eigenvalues --  1599.557293930.830555437.25831
           X            0.93816  -0.34591   0.01447
           Y            0.34512   0.93107  -0.11829
           Z            0.02744   0.11597   0.99287
 This molecule is an asymmetric top.
 Rotational symmetry number  1.
 Warning -- assumption of classical behavior for rotation
           may cause significant error
 Rotational temperatures (Kelvin)      0.05415     0.02203     0.01593
 Rotational constants (GHZ):           1.12828     0.45912     0.33192
 Zero-point vibrational energy     538285.1 (Joules/Mol)
                                  128.65324 (Kcal/Mol)
 Warning -- explicit consideration of  19 degrees of freedom as
           vibrations may cause significant error
 Vibrational temperatures:     58.32   108.16   136.44   170.04   204.21
          (Kelvin)            269.98   295.02   345.82   371.81   429.18
                              468.21   543.87   579.05   592.71   649.01
                              661.16   689.00   742.44   774.77   927.44
                              976.41  1004.13  1035.11  1061.89  1130.50
                             1171.53  1188.48  1245.46  1249.66  1314.96
                             1435.01  1443.05  1460.07  1517.83  1544.03
                             1585.07  1607.67  1641.42  1664.73  1681.22
                             1703.18  1763.07  1796.91  1854.48  1894.85
                             1951.04  1963.90  2032.70  2080.13  2111.34
                             2132.26  2143.53  2149.62  2167.32  2173.55
                             2188.78  2306.82  2337.25  2343.33  2429.59
                             2481.81  4287.79  4305.10  4416.68  4427.85
                             4488.49  4559.17  4580.25  4602.65  4606.73
                             4611.14  4615.46

 Zero-point correction=                           0.205022 (Hartree/Particle)
 Thermal correction to Energy=                    0.218019
 Thermal correction to Enthalpy=                  0.218963
 Thermal correction to Gibbs Free Energy=         0.165281
 Sum of electronic and zero-point Energies=           -669.065226
 Sum of electronic and thermal Energies=              -669.052230
 Sum of electronic and thermal Enthalpies=            -669.051286
 Sum of electronic and thermal Free Energies=         -669.104968

                     E (Thermal)             CV                S
                      KCal/Mol        Cal/Mol-Kelvin    Cal/Mol-Kelvin
 Total                  136.809             49.756            112.984
 Electronic               0.000              0.000              0.000
 Translational            0.889              2.981             41.800
 Rotational               0.889              2.981             31.903
 Vibrational            135.031             43.794             39.281
 Vibration     1          0.594              1.981              5.233
 Vibration     2          0.599              1.966              4.013
 Vibration     3          0.603              1.953              3.558
 Vibration     4          0.608              1.934              3.130
 Vibration     5          0.615              1.911              2.778
 Vibration     6          0.632              1.857              2.251
 Vibration     7          0.640              1.833              2.087
 Vibration     8          0.657              1.779              1.800
 Vibration     9          0.667              1.749              1.672
 Vibration    10          0.691              1.677              1.426
 Vibration    11          0.710              1.625              1.283
 Vibration    12          0.748              1.517              1.047
 Vibration    13          0.768              1.465              0.954
 Vibration    14          0.776              1.444              0.920
 Vibration    15          0.810              1.358              0.792
 Vibration    16          0.817              1.340              0.767
 Vibration    17          0.835              1.297              0.713
 Vibration    18          0.871              1.215              0.619
 Vibration    19          0.894              1.165              0.569

 Optimization completed.
    -- Stationary point found.
 Normal termination of Gaussian 16 at Mon Jan  8 01:41:50 2024.
