 Gaussian 16, Revision A.03,
 Gaussian 16:  ES64L-G16RevA.03 25-Dec-2016

 --------------------------------------
 #P UB3LYP/6-311++G(d,p) nosym opt freq
 --------------------------------------

 --------
 Oxidized
 --------
 Symbolic Z-matrix:
 Charge =  0 Multiplicity = 1

 SCF Done:  E(UB3LYP) =  -6108.84491949     A.U. after   17 cycles
 SCF Done:  E(UB3LYP) =  -6108.87025625     A.U. after   16 cycles
 SCF Done:  E(UB3LYP) =  -6108.87838014     A.U. after   16 cycles
 SCF Done:  E(UB3LYP) =  -6108.88460625     A.U. after   14 cycles
 SCF Done:  E(UB3LYP) =  -6108.88544263     A.U. after   14 cycles
 SCF Done:  E(UB3LYP) =  -6108.88566050     A.U. after   14 cycles
 SCF Done:  E(UB3LYP) =  -6108.88574415     A.U. after   15 cycles
 SCF Done:  E(UB3LYP) =  -6108.88608864     A.U. after   13 cycles
 SCF Done:  E(UB3LYP) =  -6108.88658264     A.U. after   16 cycles
 SCF Done:  E(UB3LYP) =  -6108.88672686     A.U. after   16 cycles
 SCF Done:  E(UB3LYP) =  -6108.88691078     A.U. after   14 cycles
 SCF Done:  E(UB3LYP) =  -6108.88703680     A.U. after   14 cycles
 SCF Done:  E(UB3LYP) =  -6108.88704168     A.U. after   12 cycles
 SCF Done:  E(UB3LYP) =  -6108.88704417     A.U. after   11 cycles
 SCF Done:  E(UB3LYP) =  -6108.88704492     A.U. after   11 cycles
 SCF Done:  E(UB3LYP) =  -6108.88704518     A.U. after   11 cycles
 SCF Done:  E(UB3LYP) =  -6108.88704528     A.U. after   11 cycles
 SCF Done:  E(UB3LYP) =  -6108.88704531     A.U. after    9 cycles
 Optimization completed.
    -- Stationary point found.
 Normal termination of Gaussian 16 at Mon Dec 18 00:02:32 2023.

 ----------------------------------------------------------------------
 #P Geom=AllCheck Guess=TCheck SCRF=Check GenChk UB3LYP/6-311++G(d,p) F
 req
 ----------------------------------------------------------------------

 Structure from the checkpoint file:  "025.chk"
 --------
 Oxidized
 --------
 Charge =  0 Multiplicity = 1

                          Input orientation:
 ---------------------------------------------------------------------
 Center     Atomic      Atomic             Coordinates (Angstroms)
 Number     Number       Type             X           Y           Z
 ---------------------------------------------------------------------
      1          6           0       -1.514605   -0.048252    1.555580
      2          6           0       -2.434782    1.151431    1.194726
      3          6           0       -2.222453    1.825392    0.013665
      4          6           0       -1.174212    1.452555   -0.887854
      5          6           0       -0.254076    0.252833   -0.527031
      6          6           0       -0.466374   -0.421099    0.654056
      7          8           0       -0.937910    2.023270   -1.947341
      8          8           0       -1.750852   -0.618928    2.615102
      9         35           0        0.567007   -1.925140    1.255594
     10         35           0       -3.255774    3.329500   -0.587802
     11          7           0        0.636565    0.075303   -1.503740
     12          7           0       -3.325475    1.328947    2.171392
     13          6           0       -4.472922    2.227564    2.341215
     14          6           0       -5.746371    1.632700    1.712146
     15          6           0       -6.963118    2.533865    1.967379
     16          6           0       -7.161260    2.806915    3.464424
     17          6           0       -5.888703    3.385807    4.097532
     18          6           0       -4.667886    2.490011    3.842343
     19          6           0        1.783915   -0.823410   -1.673711
     20          6           0        3.057571   -0.228493   -1.045108
     21          6           0        1.978448   -1.086161   -3.174841
     22          6           0        3.199148   -1.982071   -3.430189
     23          6           0        4.274203   -1.129767   -1.300504
     24          6           0        4.471912   -1.403120   -2.797550
     25          1           0        0.509193    0.783668   -2.228674
     26          1           0       -3.198199    0.620517    2.896279
     27          1           0       -4.243838    3.170957    1.848732
     28          1           0       -5.921151    0.639557    2.145077
     29          1           0       -5.589858    1.492886    0.639346
     30          1           0       -7.858597    2.071238    1.541476
     31          1           0       -6.824674    3.485437    1.438719
     32          1           0       -7.424618    1.870069    3.972107
     33          1           0       -8.001964    3.490922    3.616665
     34          1           0       -6.024774    3.521295    5.174728
     35          1           0       -5.697308    4.382907    3.681343
     36          1           0       -4.806061    1.530213    4.358937
     37          1           0       -3.763033    2.946459    4.254822
     38          1           0        1.554911   -1.766690   -1.180979
     39          1           0        2.901355   -0.088466    0.027707
     40          1           0        3.232286    0.764559   -1.478275
     41          1           0        2.116530   -0.126473   -3.691664
     42          1           0        1.073457   -1.542641   -3.586979
     43          1           0        3.334913   -2.117783   -4.507395
     44          1           0        3.007817   -2.979078   -3.013747
     45          1           0        4.135861   -2.081228   -0.771619
     46          1           0        5.169824   -0.667101   -0.874943
     47          1           0        5.312539   -2.087199   -2.949894
     48          1           0        4.735174   -0.466387   -3.305491
 ---------------------------------------------------------------------

 SCF Done:  E(UB3LYP) =  -6108.88704531     A.U. after    2 cycles

 Alpha  occ. eigenvalues -- -482.82950-482.82950 -62.48226 -62.48226 -56.30273
 Alpha  occ. eigenvalues --  -56.30273 -56.29872 -56.29872 -56.29853 -56.29852
 Alpha  occ. eigenvalues --  -19.12231 -19.12231 -14.36486 -14.36486 -10.28104
 Alpha  occ. eigenvalues --  -10.28103 -10.26539 -10.26538 -10.22884 -10.22883
 Alpha  occ. eigenvalues --  -10.22585 -10.22585 -10.18333 -10.18333 -10.17847
 Alpha  occ. eigenvalues --  -10.17847 -10.17782 -10.17782 -10.17586 -10.17586
 Alpha  occ. eigenvalues --  -10.17470 -10.17470  -8.69201  -8.69201  -6.52371
 Alpha  occ. eigenvalues --   -6.52371  -6.51042  -6.51042  -6.50997  -6.50997
 Alpha  occ. eigenvalues --   -2.63457  -2.63457  -2.63082  -2.63082  -2.63051
 Alpha  occ. eigenvalues --   -2.63051  -2.61994  -2.61994  -2.61993  -2.61993
 Alpha  occ. eigenvalues --   -1.06528  -1.06229  -0.97413  -0.97363  -0.86430
 Alpha  occ. eigenvalues --   -0.84924  -0.83864  -0.82224  -0.78472  -0.77231
 Alpha  occ. eigenvalues --   -0.75866  -0.75837  -0.75142  -0.71649  -0.68747
 Alpha  occ. eigenvalues --   -0.65133  -0.63559  -0.63292  -0.62701  -0.61560
 Alpha  occ. eigenvalues --   -0.58317  -0.58196  -0.57119  -0.55071  -0.53891
 Alpha  occ. eigenvalues --   -0.53410  -0.50445  -0.49158  -0.47443  -0.47021
 Alpha  occ. eigenvalues --   -0.46492  -0.45968  -0.45458  -0.45335  -0.45130
 Alpha  occ. eigenvalues --   -0.44529  -0.44205  -0.42850  -0.42287  -0.41702
 Alpha  occ. eigenvalues --   -0.41299  -0.40867  -0.40534  -0.39559  -0.39527
 Alpha  occ. eigenvalues --   -0.38486  -0.37506  -0.37119  -0.36364  -0.36074
 Alpha  occ. eigenvalues --   -0.35897  -0.34622  -0.33812  -0.33769  -0.32973
 Alpha  occ. eigenvalues --   -0.32879  -0.32458  -0.32436  -0.30675  -0.30147
 Alpha  occ. eigenvalues --   -0.29353  -0.29285  -0.28445  -0.27467  -0.24511
 Alpha  occ. eigenvalues --   -0.21826
 Alpha virt. eigenvalues --   -0.10829  -0.02261  -0.01924  -0.01123  -0.01046
 Alpha virt. eigenvalues --   -0.00074   0.00127   0.00228   0.00465   0.00620
 Alpha virt. eigenvalues --    0.00926   0.01085   0.01650   0.02839   0.02868

  Beta  occ. eigenvalues -- -482.82950-482.82950 -62.48226 -62.48226 -56.30273
  Beta  occ. eigenvalues --  -56.30273 -56.29872 -56.29872 -56.29853 -56.29852
  Beta  occ. eigenvalues --  -19.12231 -19.12231 -14.36486 -14.36486 -10.28104
  Beta  occ. eigenvalues --  -10.28103 -10.26539 -10.26538 -10.22884 -10.22883
  Beta  occ. eigenvalues --  -10.22585 -10.22585 -10.18333 -10.18333 -10.17847
  Beta  occ. eigenvalues --  -10.17847 -10.17782 -10.17782 -10.17586 -10.17586
  Beta  occ. eigenvalues --  -10.17470 -10.17470  -8.69201  -8.69201  -6.52371
  Beta  occ. eigenvalues --   -6.52371  -6.51042  -6.51042  -6.50997  -6.50997
  Beta  occ. eigenvalues --   -2.63457  -2.63457  -2.63082  -2.63082  -2.63051
  Beta  occ. eigenvalues --   -2.63051  -2.61994  -2.61994  -2.61993  -2.61993
  Beta  occ. eigenvalues --   -1.06528  -1.06229  -0.97413  -0.97363  -0.86430
  Beta  occ. eigenvalues --   -0.84924  -0.83864  -0.82224  -0.78472  -0.77231
  Beta  occ. eigenvalues --   -0.75866  -0.75837  -0.75142  -0.71649  -0.68747
  Beta  occ. eigenvalues --   -0.65133  -0.63559  -0.63292  -0.62701  -0.61560
  Beta  occ. eigenvalues --   -0.58317  -0.58196  -0.57119  -0.55071  -0.53891
  Beta  occ. eigenvalues --   -0.53410  -0.50445  -0.49158  -0.47443  -0.47021
  Beta  occ. eigenvalues --   -0.46492  -0.45968  -0.45458  -0.45335  -0.45130
  Beta  occ. eigenvalues --   -0.44529  -0.44205  -0.42850  -0.42287  -0.41702
  Beta  occ. eigenvalues --   -0.41299  -0.40867  -0.40534  -0.39559  -0.39527
  Beta  occ. eigenvalues --   -0.38486  -0.37506  -0.37119  -0.36364  -0.36074
  Beta  occ. eigenvalues --   -0.35897  -0.34622  -0.33812  -0.33769  -0.32973
  Beta  occ. eigenvalues --   -0.32879  -0.32458  -0.32436  -0.30675  -0.30147
  Beta  occ. eigenvalues --   -0.29353  -0.29285  -0.28445  -0.27467  -0.24511
  Beta  occ. eigenvalues --   -0.21826
  Beta virt. eigenvalues --   -0.10829  -0.02261  -0.01924  -0.01123  -0.01046
  Beta virt. eigenvalues --   -0.00074   0.00127   0.00228   0.00465   0.00620
  Beta virt. eigenvalues --    0.00926   0.01085   0.01650   0.02839   0.02868

 Mulliken charges and spin densities:
               1          2
     1  C   -0.451922  -0.000000
     2  C   -0.338600  -0.000000
     3  C    0.512019   0.000000
     4  C   -0.451560   0.000000
     5  C   -0.338653  -0.000000
     6  C    0.511795   0.000000
     7  O   -0.205960   0.000000
     8  O   -0.205948   0.000000
     9  Br  -0.055299  -0.000000
    10  Br  -0.055275  -0.000000
    11  N    0.288557  -0.000000
    12  N    0.288489   0.000000
    13  C   -0.458202  -0.000000
    14  C    0.025625   0.000000
    15  C   -0.339884   0.000000
    16  C   -0.383093   0.000000
    17  C   -0.430315  -0.000000
    18  C   -0.188736   0.000000
    19  C   -0.458185  -0.000000
    20  C    0.025564   0.000000
    21  C   -0.188657  -0.000000
    22  C   -0.430284   0.000000
    23  C   -0.339821  -0.000000
    24  C   -0.383120   0.000000
    25  H    0.351589   0.000000
    26  H    0.351604   0.000000
    27  H    0.088961  -0.000000
    28  H    0.161412  -0.000000
    29  H    0.156829  -0.000000
    30  H    0.176159   0.000000
    31  H    0.146043  -0.000000
    32  H    0.127734   0.000000
    33  H    0.175100  -0.000000
    34  H    0.188107   0.000000
    35  H    0.142779   0.000000
    36  H    0.123902  -0.000000
    37  H    0.187132   0.000000
    38  H    0.088891  -0.000000
    39  H    0.156858   0.000000
    40  H    0.161409   0.000000
    41  H    0.123907   0.000000
    42  H    0.187130   0.000000
    43  H    0.188099  -0.000000
    44  H    0.142783  -0.000000
    45  H    0.146043  -0.000000
    46  H    0.176158   0.000000
    47  H    0.175100  -0.000000
    48  H    0.127736  -0.000000
 Sum of Mulliken charges =  -0.00000   0.00000

 Dipole moment (field-independent basis, Debye):
    X=             -0.0005    Y=             -0.0004    Z=             -0.0005  Tot=              0.0008
 Quadrupole moment (field-independent basis, Debye-Ang):
   XX=           -145.8821   YY=           -174.7862   ZZ=           -169.6355
   XY=             -8.7323   XZ=            -17.5547   YZ=             15.9467

  Exact polarizability: 331.654 -62.323 248.641 -78.000  -5.836 301.095
 Approx polarizability: 416.477 -33.765 389.776-100.908 -71.854 524.964

                      1                      2                      3
                      A                      A                      A
 Frequencies --     10.0885                23.7140                33.8663
 Red. masses --      5.5768                 5.8513                 3.4802
 Frc consts  --      0.0003                 0.0019                 0.0024
 IR Inten    --      0.8600                 0.0000                 0.2166

                      4                      5                      6
                      A                      A                      A
 Frequencies --     42.0959                46.9261                52.5439
 Red. masses --      3.5048                 6.1815                 4.5573
 Frc consts  --      0.0037                 0.0080                 0.0074
 IR Inten    --      0.0000                 0.3643                 0.1673

                      7                      8                      9
                      A                      A                      A
 Frequencies --     66.0976                77.3423                95.5699
 Red. masses --      4.5549                 6.5483                 7.7608
 Frc consts  --      0.0117                 0.0231                 0.0418
 IR Inten    --      0.0000                 2.8087                 0.0000

                     10                     11                     12
                      A                      A                      A
 Frequencies --    139.4628               147.3626               157.9614
 Red. masses --      8.9969                 5.5754                 3.5949
 Frc consts  --      0.1031                 0.0713                 0.0528
 IR Inten    --      1.0210                 0.0000                 1.0261

                     13                     14                     15
                      A                      A                      A
 Frequencies --    162.4285               179.5217               195.0283
 Red. masses --      3.9446                 9.0379                23.5218
 Frc consts  --      0.0613                 0.1716                 0.5271
 IR Inten    --      0.0000                 0.2971                 0.0000

                     16                     17                     18
                      A                      A                      A
 Frequencies --    230.5685               232.2524               235.2831
 Red. masses --      2.1903                 1.8218                 3.4369
 Frc consts  --      0.0686                 0.0579                 0.1121
 IR Inten    --      0.0000                 0.1633                 0.0000

                     19                     20                     21
                      A                      A                      A
 Frequencies --    236.5279               264.2604               312.7475
 Red. masses --      5.8898                10.7755                 3.6067
 Frc consts  --      0.1941                 0.4434                 0.2079
 IR Inten    --      3.3824                 0.0000                 1.4634

                     22                     23                     24
                      A                      A                      A
 Frequencies --    334.1857               339.9131               344.2018
 Red. masses --      1.9858                 2.2202                 4.3237
 Frc consts  --      0.1307                 0.1511                 0.3018
 IR Inten    --      0.0000                 2.2419                 0.0000

                     25                     26                     27
                      A                      A                      A
 Frequencies --    361.3837               421.2792               436.6049
 Red. masses --      6.7849                 3.6940                 2.5312
 Frc consts  --      0.5221                 0.3863                 0.2843
 IR Inten    --      2.3622                 0.0000                 0.1115

                     28                     29                     30
                      A                      A                      A
 Frequencies --    446.9184               454.1007               463.5298
 Red. masses --      3.4080                 3.0889                 2.9405
 Frc consts  --      0.4011                 0.3753                 0.3722
 IR Inten    --      0.0000                 1.6486                 0.0000

                     31                     32                     33
                      A                      A                      A
 Frequencies --    472.3495               473.4232               537.1381
 Red. masses --      3.5112                 2.5059                 4.1909
 Frc consts  --      0.4616                 0.3309                 0.7124
 IR Inten    --      0.0001                40.1825                 0.0000

                     34                     35                     36
                      A                      A                      A
 Frequencies --    556.0059               565.0200               582.6947
 Red. masses --      2.3097                 3.4489                 9.2475
 Frc consts  --      0.4207                 0.6487                 1.8499
 IR Inten    --     44.9585                 0.0000                36.9464

                     37                     38                     39
                      A                      A                      A
 Frequencies --    597.9379               597.9428               743.0984
 Red. masses --      6.7100                 5.2675                 3.4229
 Frc consts  --      1.4135                 1.1096                 1.1136
 IR Inten    --     19.3124                 4.4944                 0.0000

                     40                     41                     42
                      A                      A                      A
 Frequencies --    762.0281               762.2172               763.1804
 Red. masses --      6.0587                 5.4218                 1.7366
 Frc consts  --      2.0729                 1.8559                 0.5959
 IR Inten    --     19.3413                 0.0000                65.9392

                     43                     44                     45
                      A                      A                      A
 Frequencies --    765.2076               773.4609               795.0395
 Red. masses --      2.3604                 1.4490                 1.5070
 Frc consts  --      0.8143                 0.5107                 0.5612
 IR Inten    --     40.8862                 0.0001                 0.0001

                     46                     47                     48
                      A                      A                      A
 Frequencies --    795.1457               800.0210               803.3579
 Red. masses --      1.4826                 3.4861                 2.5519
 Frc consts  --      0.5523                 1.3146                 0.9703
 IR Inten    --      0.9631                 0.0000                 9.4976

                     49                     50                     51
                      A                      A                      A
 Frequencies --    833.6725               851.0914               852.3354
 Red. masses --      4.2827                 2.0592                 2.1370
 Frc consts  --      1.7537                 0.8788                 0.9147
 IR Inten    --      0.0000                 0.0000                 6.1641

                     52                     53                     54
                      A                      A                      A
 Frequencies --    897.7028               899.3475               901.8879
 Red. masses --      1.8083                 1.8091                 1.9197
 Frc consts  --      0.8586                 0.8621                 0.9200
 IR Inten    --      7.3462                 0.0000                11.7674

                     55                     56                     57
                      A                      A                      A
 Frequencies --    912.9682               932.9299               933.8239
 Red. masses --      1.8783                 1.5442                 1.5887
 Frc consts  --      0.9224                 0.7919                 0.8163
 IR Inten    --      0.0000                 0.5896                 0.0000

                     58                     59                     60
                      A                      A                      A
 Frequencies --    977.5989               979.1616              1002.1528
 Red. masses --      2.5224                 2.4391                 5.6751
 Frc consts  --      1.4203                 1.3778                 3.3581
 IR Inten    --     41.6182                 0.0000                95.7080

                     61                     62                     63
                      A                      A                      A
 Frequencies --   1037.2413              1037.2462              1063.6949
 Red. masses --      1.8536                 1.8477                 1.6096
 Frc consts  --      1.1750                 1.1712                 1.0730
 IR Inten    --      3.7388                 0.0149                 0.0000

                     64                     65                     66
                      A                      A                      A
 Frequencies --   1065.2288              1084.3247              1085.3931
 Red. masses --      1.5366                 3.2313                 3.8285
 Frc consts  --      1.0273                 2.2385                 2.6574
 IR Inten    --     16.1515                 0.0000                50.1823

                     67                     68                     69
                      A                      A                      A
 Frequencies --   1093.2105              1093.2477              1096.5347
 Red. masses --      2.1763                 2.3643                 1.3027
 Frc consts  --      1.5324                 1.6649                 0.9229
 IR Inten    --      0.0003                 2.2793                 0.0001

                     70                     71                     72
                      A                      A                      A
 Frequencies --   1096.8647              1171.1253              1171.7380
 Red. masses --      1.2469                 2.4526                 2.4314
 Frc consts  --      0.8839                 1.9819                 1.9669
 IR Inten    --      5.6539                 0.0000                 7.1253

                     73                     74                     75
                      A                      A                      A
 Frequencies --   1209.6636              1211.2337              1226.5594
 Red. masses --      1.6164                 1.5186                 2.6239
 Frc consts  --      1.3935                 1.3126                 2.3258
 IR Inten    --      0.0000                 9.4546                 0.0000

                     76                     77                     78
                      A                      A                      A
 Frequencies --   1235.7644              1278.7682              1279.0663
 Red. masses --      2.9111                 1.3324                 1.3458
 Frc consts  --      2.6193                 1.2838                 1.2972
 IR Inten    --     83.1361                 0.0000                16.9772

                     79                     80                     81
                      A                      A                      A
 Frequencies --   1288.8134              1288.8167              1294.1213
 Red. masses --      1.2645                 1.2650                 1.3347
 Frc consts  --      1.2375                 1.2380                 1.3170
 IR Inten    --      0.1730                 3.7108                 2.5976

                     82                     83                     84
                      A                      A                      A
 Frequencies --   1294.3517              1324.0053              1331.8149
 Red. masses --      1.3247                 5.5529                 3.8567
 Frc consts  --      1.3076                 5.7353                 4.0305
 IR Inten    --      0.0000               227.0086                 0.0000

                     85                     86                     87
                      A                      A                      A
 Frequencies --   1340.0444              1340.1317              1353.6977
 Red. masses --      1.2950                 1.2981                 1.2656
 Frc consts  --      1.3701                 1.3736                 1.3664
 IR Inten    --      1.9144                 0.0005                 5.1812

                     88                     89                     90
                      A                      A                      A
 Frequencies --   1355.2804              1368.0485              1368.0641
 Red. masses --      1.3448                 1.3775                 1.3785
 Frc consts  --      1.4553                 1.5190                 1.5201
 IR Inten    --      0.0000                 0.3241                 0.0000

                     91                     92                     93
                      A                      A                      A
 Frequencies --   1370.2269              1370.2775              1378.4969
 Red. masses --      1.3239                 1.3253                 1.4542
 Frc consts  --      1.4645                 1.4661                 1.6281
 IR Inten    --      1.0195                 0.0000                 1.3569

                     94                     95                     96
                      A                      A                      A
 Frequencies --   1378.5213              1382.1504              1382.7744
 Red. masses --      1.4534                 1.4430                 1.4446
 Frc consts  --      1.6272                 1.6241                 1.6274
 IR Inten    --      0.0003                45.5784                 0.0000

                     97                     98                     99
                      A                      A                      A
 Frequencies --   1404.4087              1405.8711              1485.0402
 Red. masses --      1.4046                 1.4206                 1.0861
 Frc consts  --      1.6323                 1.6543                 1.4112
 IR Inten    --     29.5460                 0.0000                 1.7960

                    100                    101                    102
                      A                      A                      A
 Frequencies --   1485.0551              1488.9775              1488.9806
 Red. masses --      1.0861                 1.0921                 1.0922
 Frc consts  --      1.4112                 1.4266                 1.4267
 IR Inten    --      0.0000                 5.3508                 0.1423

                    103                    104                    105
                      A                      A                      A
 Frequencies --   1490.7589              1490.7824              1495.8856
 Red. masses --      1.0941                 1.0938                 1.0825
 Frc consts  --      1.4326                 1.4322                 1.4272
 IR Inten    --      0.0092                13.8295                 0.2063

                    106                    107                    108
                      A                      A                      A
 Frequencies --   1495.8941              1508.3855              1508.4184
 Red. masses --      1.0823                 1.0981                 1.0979
 Frc consts  --      1.4269                 1.4721                 1.4718
 IR Inten    --     26.1940                 0.9144                 0.0002

                    109                    110                    111
                      A                      A                      A
 Frequencies --   1546.2386              1553.6722              1621.3732
 Red. masses --      1.9859                 1.7213                 6.9271
 Frc consts  --      2.7974                 2.4481                10.7293
 IR Inten    --      0.0000              1037.5832              1523.6973

                    112                    113                    114
                      A                      A                      A
 Frequencies --   1626.6241              1685.4184              1707.2679
 Red. masses --      5.7095                 7.8616                 8.8520
 Frc consts  --      8.9006                13.1576                15.2018
 IR Inten    --      0.0001                 0.0000               103.1786

                    115                    116                    117
                      A                      A                      A
 Frequencies --   2995.4688              2995.4814              3001.4323
 Red. masses --      1.0688                 1.0688                 1.0711
 Frc consts  --      5.6503                 5.6504                 5.6853
 IR Inten    --      0.0001                27.2406                35.8199

                    118                    119                    120
                      A                      A                      A
 Frequencies --   3001.4671              3006.7256              3006.7313
 Red. masses --      1.0712                 1.0678                 1.0678
 Frc consts  --      5.6856                 5.6878                 5.6878
 IR Inten    --      0.0044                 0.0038                19.9713

                    121                    122                    123
                      A                      A                      A
 Frequencies --   3010.7617              3010.7672              3014.3712
 Red. masses --      1.0634                 1.0634                 1.0616
 Frc consts  --      5.6794                 5.6795                 5.6834
 IR Inten    --     18.4355                 0.0061                 0.0003

                    124                    125                    126
                      A                      A                      A
 Frequencies --   3014.4043              3054.1012              3054.1899
 Red. masses --      1.0616                 1.0930                 1.0930
 Frc consts  --      5.6834                 6.0065                 6.0069
 IR Inten    --     95.2463               152.6324                 0.0000

                    127                    128                    129
                      A                      A                      A
 Frequencies --   3055.9787              3055.9958              3058.6617
 Red. masses --      1.0962                 1.0962                 1.0935
 Frc consts  --      6.0316                 6.0318                 6.0274
 IR Inten    --      0.0042               102.4399                18.8127

                    130                    131                    132
                      A                      A                      A
 Frequencies --   3058.6753              3060.5525              3060.5695
 Red. masses --      1.0935                 1.1026                 1.1027
 Frc consts  --      6.0273                 6.0852                 6.0855
 IR Inten    --      0.0409                 0.0058               123.5164

                    133                    134                    135
                      A                      A                      A
 Frequencies --   3072.4506              3072.4552              3113.4324
 Red. masses --      1.0961                 1.0961                 1.0855
 Frc consts  --      6.0965                 6.0965                 6.1995
 IR Inten    --      3.3247                37.5897                22.9307

                    136                    137                    138
                      A                      A                      A
 Frequencies --   3113.4791              3422.3509              3428.2208
 Red. masses --      1.0855                 1.0742                 1.0747
 Frc consts  --      6.1997                 7.4126                 7.4421
 IR Inten    --      0.9921                 0.0002               202.7068

 - Thermochemistry -
 -------------------
 Temperature   298.150 Kelvin.  Pressure   1.00000 Atm.
 Atom     1 has atomic number  6 and mass  12.00000

 Molecular mass:   458.02045 amu.
 Principal axes and moments of inertia in atomic units:
                           1         2         3
     Eigenvalues --  5638.72156********************
           X            0.82153   0.01904   0.56984
           Y           -0.44105  -0.61215   0.65631
           Z           -0.36133   0.79051   0.49451
 This molecule is an asymmetric top.
 Rotational symmetry number  1.
 Warning -- assumption of classical behavior for rotation
           may cause significant error
 Rotational temperatures (Kelvin)      0.01536     0.00375     0.00315
 Rotational constants (GHZ):           0.32006     0.07820     0.06573
 Zero-point vibrational energy    1050548.7 (Joules/Mol)
                                  251.08717 (Kcal/Mol)
 Warning -- explicit consideration of  38 degrees of freedom as
           vibrations may cause significant error
 Vibrational temperatures:     14.52    34.12    48.73    60.57    67.52
          (Kelvin)             75.60    95.10   111.28   137.50   200.66
                              212.02   227.27   233.70   258.29   280.60
                              331.74   334.16   338.52   340.31   380.21
                              449.97   480.82   489.06   495.23   519.95
                              606.13   628.18   643.02   653.35   666.92
                              679.61   681.15   772.82   799.97   812.94
                              838.37   860.30   860.31  1069.15  1096.39
                             1096.66  1098.05  1100.96  1112.84  1143.88
                             1144.04  1151.05  1155.85  1199.47  1224.53
                             1226.32  1291.59  1293.96  1297.62  1313.56
                             1342.28  1343.56  1406.55  1408.80  1441.87
                             1492.36  1492.37  1530.42  1532.63  1560.10
                             1561.64  1572.89  1572.94  1577.67  1578.14
                             1684.99  1685.87  1740.44  1742.70  1764.75
                             1777.99  1839.86  1840.29  1854.32  1854.32
                             1861.95  1862.28  1904.95  1916.18  1928.03
                             1928.15  1947.67  1949.95  1968.32  1968.34
                             1971.45  1971.52  1983.35  1983.38  1988.61
                             1989.50  2020.63  2022.73  2136.64  2136.66
                             2142.31  2142.31  2144.87  2144.90  2152.25
                             2152.26  2170.23  2170.28  2224.69  2235.39
                             2332.79  2340.35  2424.94  2456.38  4309.81
                             4309.83  4318.39  4318.44  4326.01  4326.02
                             4331.81  4331.82  4337.01  4337.06  4394.17
                             4394.30  4396.87  4396.90  4400.73  4400.75
                             4403.45  4403.48  4420.57  4420.58  4479.53
                             4479.60  4924.00  4932.45

 Zero-point correction=                           0.400133 (Hartree/Particle)
 Thermal correction to Energy=                    0.423619
 Thermal correction to Enthalpy=                  0.424563
 Thermal correction to Gibbs Free Energy=         0.343056
 Sum of electronic and zero-point Energies=          -6108.486912
 Sum of electronic and thermal Energies=             -6108.463426
 Sum of electronic and thermal Enthalpies=           -6108.462482
 Sum of electronic and thermal Free Energies=        -6108.543990

                     E (Thermal)             CV                S
                      KCal/Mol        Cal/Mol-Kelvin    Cal/Mol-Kelvin
 Total                  265.825             88.829            171.547
 Electronic               0.000              0.000              0.000
 Translational            0.889              2.981             44.254
 Rotational               0.889              2.981             36.522
 Vibrational            264.047             82.867             90.770
 Vibration     1          0.593              1.987              7.994
 Vibration     2          0.593              1.985              6.296
 Vibration     3          0.594              1.983              5.589
 Vibration     4          0.595              1.980              5.158
 Vibration     5          0.595              1.979              4.943
 Vibration     6          0.596              1.977              4.719
 Vibration     7          0.597              1.970              4.266
 Vibration     8          0.599              1.964              3.957
 Vibration     9          0.603              1.952              3.543
 Vibration    10          0.615              1.914              2.811
 Vibration    11          0.617              1.906              2.706
 Vibration    12          0.621              1.894              2.574
 Vibration    13          0.623              1.889              2.521
 Vibration    14          0.629              1.867              2.333
 Vibration    15          0.636              1.847              2.179
 Vibration    16          0.652              1.794              1.875
 Vibration    17          0.653              1.792              1.861
 Vibration    18          0.655              1.787              1.838
 Vibration    19          0.655              1.785              1.829
 Vibration    20          0.671              1.738              1.633
 Vibration    21          0.701              1.649              1.348
 Vibration    22          0.716              1.607              1.240
 Vibration    23          0.720              1.596              1.213
 Vibration    24          0.723              1.587              1.193
 Vibration    25          0.736              1.552              1.116
 Vibration    26          0.784              1.424              0.888
 Vibration    27          0.797              1.390              0.837
 Vibration    28          0.806              1.368              0.805
 Vibration    29          0.813              1.352              0.783
 Vibration    30          0.821              1.331              0.756
 Vibration    31          0.829              1.311              0.731
 Vibration    32          0.830              1.309              0.728
 Vibration    33          0.892              1.168              0.571
 Vibration    34          0.911              1.127              0.532
 Vibration    35          0.921              1.107              0.514
 Vibration    36          0.940              1.069              0.480
 Vibration    37          0.956              1.036              0.453
 Vibration    38          0.956              1.036              0.453

 Optimization completed.
    -- Stationary point found.
 Normal termination of Gaussian 16 at Mon Dec 18 02:46:05 2023.
