 Gaussian 16, Revision A.03,
 Gaussian 16:  ES64L-G16RevA.03 25-Dec-2016

 ----------------------------------------------------------------------
 #P UB3LYP/6-311++G(d,p) nosym opt freq SCRF=(PCM,Solvent=n,n-DiMethylF
 ormamide)
 ----------------------------------------------------------------------

 -------
 Radical
 -------
 Symbolic Z-matrix:
 Charge = -1 Multiplicity = 2

 SCF Done:  E(UB3LYP) =  -566.275503335     A.U. after   19 cycles
 SCF Done:  E(UB3LYP) =  -566.275579415     A.U. after   15 cycles
 SCF Done:  E(UB3LYP) =  -566.275589735     A.U. after   13 cycles
 SCF Done:  E(UB3LYP) =  -566.275594066     A.U. after   13 cycles
 SCF Done:  E(UB3LYP) =  -566.275593743     A.U. after   12 cycles
 SCF Done:  E(UB3LYP) =  -566.275594790     A.U. after   10 cycles
 Optimization completed.
    -- Stationary point found.
 Normal termination of Gaussian 16 at Sat Feb 10 10:14:13 2024.

 ----------------------------------------------------------------------
 #P Geom=AllCheck Guess=TCheck SCRF=Check GenChk UB3LYP/6-311++G(d,p) F
 req
 ----------------------------------------------------------------------

 Structure from the checkpoint file:  "001-rad.chk"
 -------
 Radical
 -------
 Charge = -1 Multiplicity = 2

                          Input orientation:
 ---------------------------------------------------------------------
 Center     Atomic      Atomic             Coordinates (Angstroms)
 Number     Number       Type             X           Y           Z
 ---------------------------------------------------------------------
      1          8           0       -1.079430    1.744703   -1.862952
      2          6           0       -0.810589    0.874745   -1.004689
      3          6           0       -1.829063   -0.019159   -0.465919
      4          6           0       -1.554398   -0.966297    0.461288
      5          6           0       -0.216365   -1.174968    1.002271
      6          8           0        0.022057   -2.056180    1.858073
      7          6           0        0.819459   -0.293814    0.482032
      8          6           0        0.534729    0.688105   -0.479993
      9          6           0        1.553706    1.540681   -0.979262
     10          7           0        2.383220    2.238424   -1.388512
     11          6           0        2.135345   -0.464838    0.985699
     12          7           0        3.208515   -0.606523    1.398801
     13          1           0       -2.834598    0.113043   -0.850675
     14          1           0       -2.332588   -1.617921    0.843838
 ---------------------------------------------------------------------

 SCF Done:  E(UB3LYP) =  -566.275594790     A.U. after    1 cycles

 Alpha  occ. eigenvalues --  -19.10831 -19.10830 -14.32561 -14.32560 -10.25918
 Alpha  occ. eigenvalues --  -10.25917 -10.22899 -10.22850 -10.22585 -10.22582
 Alpha  occ. eigenvalues --  -10.19467 -10.19394  -1.03605  -1.03338  -0.92958
 Alpha  occ. eigenvalues --   -0.92233  -0.86477  -0.79935  -0.74019  -0.66821
 Alpha  occ. eigenvalues --   -0.63484  -0.54436  -0.53492  -0.51274  -0.47085
 Alpha  occ. eigenvalues --   -0.45175  -0.44068  -0.41811  -0.41017  -0.40728
 Alpha  occ. eigenvalues --   -0.38887  -0.38680  -0.38499  -0.36807  -0.35524
 Alpha  occ. eigenvalues --   -0.34929  -0.30581  -0.28582  -0.27282  -0.26911
 Alpha  occ. eigenvalues --   -0.19698
 Alpha virt. eigenvalues --   -0.07653  -0.01551  -0.00211   0.00583   0.01588
 Alpha virt. eigenvalues --    0.01907   0.02486   0.04265   0.04461   0.04730
 Alpha virt. eigenvalues --    0.05337   0.05843   0.06736   0.06934   0.07363

  Beta  occ. eigenvalues --  -19.10186 -19.10184 -14.32422 -14.32420 -10.25878
  Beta  occ. eigenvalues --  -10.25877 -10.22660 -10.22647 -10.22619 -10.22583
  Beta  occ. eigenvalues --  -10.19434 -10.19360  -1.02522  -1.02223  -0.92708
  Beta  occ. eigenvalues --   -0.92015  -0.85824  -0.79665  -0.73048  -0.66432
  Beta  occ. eigenvalues --   -0.63179  -0.54104  -0.53187  -0.51032  -0.46900
  Beta  occ. eigenvalues --   -0.43638  -0.43395  -0.41411  -0.40550  -0.38908
  Beta  occ. eigenvalues --   -0.38669  -0.38462  -0.37454  -0.35742  -0.35401
  Beta  occ. eigenvalues --   -0.34836  -0.28017  -0.27167  -0.26668  -0.26298
  Beta virt. eigenvalues --   -0.12892  -0.06074  -0.00152  -0.00039   0.00637
  Beta virt. eigenvalues --    0.01609   0.01966   0.02540   0.04286   0.04522
  Beta virt. eigenvalues --    0.04828   0.05830   0.05909   0.07120   0.07395

 Mulliken charges and spin densities:
               1          2
     1  O   -0.422336   0.235889
     2  C   -0.592596   0.022714
     3  C    0.099598   0.024623
     4  C    0.099996   0.024616
     5  C   -0.591958   0.022802
     6  O   -0.422598   0.235838
     7  C    1.563502   0.185388
     8  C    1.564314   0.185550
     9  C   -1.064518  -0.034466
    10  N   -0.307338   0.068722
    11  C   -1.065195  -0.034432
    12  N   -0.307276   0.068673
    13  H    0.223283  -0.002957
    14  H    0.223123  -0.002959
 Sum of Mulliken charges =  -1.00000   1.00000

 Dipole moment (field-independent basis, Debye):
    X=             -8.1104    Y=             -2.3584    Z=             -0.0090  Tot=              8.4463
 Quadrupole moment (field-independent basis, Debye-Ang):
   XX=            -96.0161   YY=            -94.7417   ZZ=            -91.6277
   XY=             -0.4719   XZ=             -6.7622   YZ=             23.1311

  Exact polarizability: 217.533  13.137 176.989  26.078 -89.116 161.699
 Approx polarizability: 241.068  11.248 206.566  31.105-106.317 189.618

                      1                      2                      3
                      A                      A                      A
 Frequencies --     74.2706               104.2625               125.0559
 Red. masses --     13.3903                 7.1236                13.6527
 Frc consts  --      0.0435                 0.0456                 0.1258
 IR Inten    --      0.0156                13.8007                 1.8614

                      4                      5                      6
                      A                      A                      A
 Frequencies --    168.3575               169.9569               298.8796
 Red. masses --     10.0226                12.9946                 6.1504
 Frc consts  --      0.1674                 0.2212                 0.3237
 IR Inten    --     21.5169                 5.9554                 0.0001

                      7                      8                      9
                      A                      A                      A
 Frequencies --    356.3358               362.2003               370.2195
 Red. masses --     14.5983                 7.1353                11.1380
 Frc consts  --      1.0921                 0.5515                 0.8994
 IR Inten    --      4.2946                 0.0006                 0.2205

                     10                     11                     12
                      A                      A                      A
 Frequencies --    448.9640               468.6145               491.2646
 Red. masses --     11.9406                11.8463                 5.6794
 Frc consts  --      1.4181                 1.5327                 0.8076
 IR Inten    --     16.7025                 7.2160                11.2945

                     13                     14                     15
                      A                      A                      A
 Frequencies --    536.8438               598.5295               609.0865
 Red. masses --     12.2075                 9.1362                 9.1526
 Frc consts  --      2.0729                 1.9284                 2.0006
 IR Inten    --      4.3362                 0.0003                 8.7726

                     16                     17                     18
                      A                      A                      A
 Frequencies --    641.7683               644.3323               747.6916
 Red. masses --      3.0627                 4.6370                 8.5318
 Frc consts  --      0.7432                 1.1342                 2.8102
 IR Inten    --      0.0784                 0.0767                38.3461

                     19                     20                     21
                      A                      A                      A
 Frequencies --    768.0690               853.1336               970.2631
 Red. masses --      8.8902                 1.9681                 7.8491
 Frc consts  --      3.0900                 0.8440                 4.3536
 IR Inten    --      0.0009                68.1858                14.1364

                     22                     23                     24
                      A                      A                      A
 Frequencies --    996.6066              1007.6513              1154.9540
 Red. masses --      1.2754                 6.1717                 1.3559
 Frc consts  --      0.7464                 3.6921                 1.0656
 IR Inten    --      0.0024                 7.5755                53.6479

                     25                     26                     27
                      A                      A                      A
 Frequencies --   1159.1643              1264.0819              1349.0148
 Red. masses --      4.2163                 5.2934                 2.6894
 Frc consts  --      3.3379                 4.9835                 2.8837
 IR Inten    --     41.6487                21.5728                47.8019

                     28                     29                     30
                      A                      A                      A
 Frequencies --   1410.1232              1448.6636              1545.9805
 Red. masses --      3.3708                 9.4348                11.5393
 Frc consts  --      3.9491                11.6659                16.2494
 IR Inten    --    109.4917               369.8561                31.3717

                     31                     32                     33
                      A                      A                      A
 Frequencies --   1552.4480              1638.2641              2286.3114
 Red. masses --      8.3502                 7.0777                12.6871
 Frc consts  --     11.8571                11.1920                39.0735
 IR Inten    --    943.5649                64.4033               495.1187

                     34                     35                     36
                      A                      A                      A
 Frequencies --   2293.1335              3169.1321              3185.6491
 Red. masses --     12.6799                 1.0871                 1.0969
 Frc consts  --     39.2847                 6.4328                 6.5583
 IR Inten    --    130.1583                 9.4972                14.7221

 - Thermochemistry -
 -------------------
 Temperature   298.150 Kelvin.  Pressure   1.00000 Atm.
 Atom     1 has atomic number  8 and mass  15.99491

 Molecular mass:   158.01163 amu.
 Principal axes and moments of inertia in atomic units:
                           1         2         3
     Eigenvalues --  1485.119711708.863393193.98185
           X           -0.20252   0.96005  -0.19312
           Y            0.69971   0.27983   0.65735
           Z           -0.68512   0.00200   0.72842
 This molecule is an asymmetric top.
 Rotational symmetry number  1.
 Warning -- assumption of classical behavior for rotation
           may cause significant error
 Rotational temperatures (Kelvin)      0.05832     0.05069     0.02712
 Rotational constants (GHZ):           1.21522     1.05611     0.56504
 Zero-point vibrational energy     210957.1 (Joules/Mol)
                                   50.41996 (Kcal/Mol)
 Warning -- explicit consideration of  15 degrees of freedom as
           vibrations may cause significant error
 Vibrational temperatures:    106.86   150.01   179.93   242.23   244.53
          (Kelvin)            430.02   512.69   521.13   532.66   645.96
                              674.23   706.82   772.40   861.15   876.34
                              923.36   927.05  1075.76  1105.08  1227.47
                             1395.99  1433.89  1449.79  1661.72  1667.78
                             1818.73  1940.93  2028.85  2084.30  2224.32
                             2233.63  2357.10  3289.49  3299.31  4559.67
                             4583.44

 Zero-point correction=                           0.080349 (Hartree/Particle)
 Thermal correction to Energy=                    0.090047
 Thermal correction to Enthalpy=                  0.090991
 Thermal correction to Gibbs Free Energy=         0.044141
 Sum of electronic and zero-point Energies=           -566.195245
 Sum of electronic and thermal Energies=              -566.185548
 Sum of electronic and thermal Enthalpies=            -566.184603
 Sum of electronic and thermal Free Energies=         -566.231454

                     E (Thermal)             CV                S
                      KCal/Mol        Cal/Mol-Kelvin    Cal/Mol-Kelvin
 Total                   56.505             35.243             98.606
 Electronic               0.000              0.000              1.377
 Translational            0.889              2.981             41.082
 Rotational               0.889              2.981             30.473
 Vibrational             54.728             29.281             25.674
 Vibration     1          0.599              1.966              4.037
 Vibration     2          0.605              1.946              3.373
 Vibration     3          0.610              1.928              3.021
 Vibration     4          0.625              1.881              2.454
 Vibration     5          0.625              1.879              2.436
 Vibration     6          0.692              1.676              1.423
 Vibration     7          0.732              1.562              1.138
 Vibration     8          0.736              1.550              1.113
 Vibration     9          0.742              1.533              1.079
 Vibration    10          0.808              1.363              0.799
 Vibration    11          0.826              1.320              0.741
 Vibration    12          0.847              1.269              0.680
 Vibration    13          0.892              1.169              0.572
 Vibration    14          0.957              1.035              0.452
 Vibration    15          0.968              1.013              0.434

 Optimization completed.
    -- Stationary point found.
 Normal termination of Gaussian 16 at Sat Feb 10 10:24:27 2024.
