 Gaussian 16, Revision A.03,
 Gaussian 16:  ES64L-G16RevA.03 25-Dec-2016

 --------------------------------------
 #P UB3LYP/6-311++G(d,p) nosym opt freq
 --------------------------------------

 -------
 Reduced
 -------
 Symbolic Z-matrix:
 Charge = -2 Multiplicity = 1

 SCF Done:  E(UB3LYP) =  -669.195132034     A.U. after   41 cycles
 SCF Done:  E(UB3LYP) =  -669.212718304     A.U. after   33 cycles
 SCF Done:  E(UB3LYP) =  -669.216495881     A.U. after   32 cycles
 SCF Done:  E(UB3LYP) =  -669.218665614     A.U. after   31 cycles
 SCF Done:  E(UB3LYP) =  -669.220570433     A.U. after   29 cycles
 SCF Done:  E(UB3LYP) =  -669.221933899     A.U. after   31 cycles
 SCF Done:  E(UB3LYP) =  -669.222247251     A.U. after   31 cycles
 SCF Done:  E(UB3LYP) =  -669.222621896     A.U. after   29 cycles
 SCF Done:  E(UB3LYP) =  -669.222643925     A.U. after   26 cycles
 SCF Done:  E(UB3LYP) =  -669.222683301     A.U. after   26 cycles
 SCF Done:  E(UB3LYP) =  -669.222686577     A.U. after   24 cycles
 SCF Done:  E(UB3LYP) =  -669.222688151     A.U. after   24 cycles
 SCF Done:  E(UB3LYP) =  -669.222688689     A.U. after   25 cycles
 SCF Done:  E(UB3LYP) =  -669.222688777     A.U. after   23 cycles
 SCF Done:  E(UB3LYP) =  -669.222688792     A.U. after   22 cycles
 Optimization completed.
    -- Stationary point found.
 Normal termination of Gaussian 16 at Sat Jan  6 03:36:20 2024.

 ----------------------------------------------------------------------
 #P Geom=AllCheck Guess=TCheck SCRF=Check GenChk UB3LYP/6-311++G(d,p) F
 req
 ----------------------------------------------------------------------

 Structure from the checkpoint file:  "323-an.chk"
 -------
 Reduced
 -------
 Charge = -2 Multiplicity = 1

                          Input orientation:
 ---------------------------------------------------------------------
 Center     Atomic      Atomic             Coordinates (Angstroms)
 Number     Number       Type             X           Y           Z
 ---------------------------------------------------------------------
      1          6           0       -1.645986    2.855281   -0.733748
      2          6           0       -2.865456    2.205346   -0.718389
      3          6           0       -2.906199    0.800741   -0.504024
      4          6           0       -0.417134    2.181904   -0.522804
      5          6           0       -0.467789    0.756074   -0.247783
      6          6           0       -1.730437    0.109661   -0.275692
      7          6           0        0.825799    2.944052   -0.599796
      8          6           0        2.091080    2.180506   -0.387095
      9          6           0        1.954706    0.779575   -0.092066
     10          6           0        0.756459    0.073405   -0.008380
     11          8           0        0.828049    4.187530   -0.837570
     12          8           0        3.231946    2.735571   -0.448384
     13          1           0       -1.581035    3.923550   -0.917475
     14          1           0       -3.787126    2.760053   -0.885951
     15          1           0       -3.855844    0.268977   -0.518439
     16          1           0       -1.755104   -0.965790   -0.128177
     17          1           0        2.896768    0.268575    0.091434
     18          7           0        0.713329   -1.344742    0.283681
     19          6           0        1.851328   -2.124508   -0.164216
     20          6           0        0.390358   -1.654141    1.677034
     21          1           0        2.082679   -1.875874   -1.202036
     22          1           0        1.612359   -3.191656   -0.100280
     23          1           0        2.770311   -1.961288    0.436001
     24          1           0       -0.468901   -1.064032    1.995630
     25          1           0        1.233611   -1.432085    2.364630
     26          1           0        0.142508   -2.720873    1.785936
 ---------------------------------------------------------------------

 SCF Done:  E(UB3LYP) =  -669.222688792     A.U. after    1 cycles

 Alpha  occ. eigenvalues --  -18.78833 -18.78233 -14.08890  -9.97674  -9.97332
 Alpha  occ. eigenvalues --   -9.94082  -9.93965  -9.93827  -9.93172  -9.92900
 Alpha  occ. eigenvalues --   -9.92891  -9.92169  -9.91976  -9.90608  -9.89426
 Alpha  occ. eigenvalues --   -0.71601  -0.70162  -0.68715  -0.60334  -0.54199
 Alpha  occ. eigenvalues --   -0.50296  -0.49207  -0.46854  -0.44117  -0.38909
 Alpha  occ. eigenvalues --   -0.36228  -0.33589  -0.30991  -0.26858  -0.24939
 Alpha  occ. eigenvalues --   -0.24535  -0.23859  -0.21881  -0.19999  -0.18342
 Alpha  occ. eigenvalues --   -0.17686  -0.17466  -0.16030  -0.15438  -0.15243
 Alpha  occ. eigenvalues --   -0.13857  -0.12548  -0.11547  -0.09965  -0.09619
 Alpha  occ. eigenvalues --   -0.08047  -0.06029  -0.03962  -0.00306   0.00184
 Alpha  occ. eigenvalues --    0.03124   0.04278   0.06002   0.12855
 Alpha virt. eigenvalues --    0.14668   0.15745   0.16844   0.17546   0.18295
 Alpha virt. eigenvalues --    0.19855   0.20799   0.20998   0.21443   0.21760
 Alpha virt. eigenvalues --    0.22061   0.23026   0.24580   0.25325   0.26100

  Beta  occ. eigenvalues --  -18.78833 -18.78233 -14.08890  -9.97674  -9.97332
  Beta  occ. eigenvalues --   -9.94082  -9.93965  -9.93827  -9.93172  -9.92900
  Beta  occ. eigenvalues --   -9.92891  -9.92169  -9.91976  -9.90608  -9.89426
  Beta  occ. eigenvalues --   -0.71601  -0.70162  -0.68715  -0.60334  -0.54199
  Beta  occ. eigenvalues --   -0.50296  -0.49207  -0.46854  -0.44117  -0.38909
  Beta  occ. eigenvalues --   -0.36228  -0.33589  -0.30991  -0.26858  -0.24939
  Beta  occ. eigenvalues --   -0.24535  -0.23859  -0.21881  -0.19999  -0.18342
  Beta  occ. eigenvalues --   -0.17686  -0.17466  -0.16030  -0.15438  -0.15243
  Beta  occ. eigenvalues --   -0.13857  -0.12548  -0.11547  -0.09965  -0.09619
  Beta  occ. eigenvalues --   -0.08047  -0.06029  -0.03962  -0.00306   0.00184
  Beta  occ. eigenvalues --    0.03124   0.04278   0.06002   0.12855
  Beta virt. eigenvalues --    0.14668   0.15745   0.16844   0.17546   0.18295
  Beta virt. eigenvalues --    0.19855   0.20799   0.20998   0.21443   0.21760
  Beta virt. eigenvalues --    0.22061   0.23026   0.24580   0.25325   0.26100

 Mulliken charges and spin densities:
               1          2
     1  C    0.041818   0.000000
     2  C   -0.400724   0.000000
     3  C   -0.699631  -0.000000
     4  C    0.548831  -0.000000
     5  C    0.557020   0.000000
     6  C   -0.153921  -0.000000
     7  C   -0.600976   0.000000
     8  C   -0.414261  -0.000000
     9  C    0.165436   0.000000
    10  C   -0.410557   0.000000
    11  O   -0.467544  -0.000000
    12  O   -0.481808   0.000000
    13  H    0.134082  -0.000000
    14  H    0.068219   0.000000
    15  H   -0.062708   0.000000
    16  H    0.097307   0.000000
    17  H    0.141856   0.000000
    18  N   -0.001839  -0.000000
    19  C    0.239235   0.000000
    20  C    0.864857   0.000000
    21  H    0.136139  -0.000000
    22  H   -0.431048  -0.000000
    23  H   -0.105493  -0.000000
    24  H    0.118443  -0.000000
    25  H   -0.133750   0.000000
    26  H   -0.748982  -0.000000
 Sum of Mulliken charges =  -2.00000   0.00000

 Dipole moment (field-independent basis, Debye):
    X=             -7.6225    Y=            -12.2928    Z=              1.0815  Tot=             14.5047
 Quadrupole moment (field-independent basis, Debye-Ang):
   XX=           -154.7691   YY=           -202.4910   ZZ=           -117.2714
   XY=            -21.2611   XZ=             -0.9815   YZ=             25.1581

  Exact polarizability:1153.027-259.0051397.251  28.200-178.266 669.649
 Approx polarizability: 948.160  23.3145031.802  35.495******** 990.270

                      1                      2                      3
                      A                      A                      A
 Frequencies --     50.2156                71.7525               110.8613
 Red. masses --      3.2025                 6.2109                 3.9851
 Frc consts  --      0.0048                 0.0188                 0.0289
 IR Inten    --      8.2170                 2.1170                 1.6994

                      4                      5                      6
                      A                      A                      A
 Frequencies --    135.7662               164.1134               213.3897
 Red. masses --      4.2948                 2.8713                 4.6122
 Frc consts  --      0.0466                 0.0456                 0.1237
 IR Inten    --     12.3057                 5.3998                28.9748

                      7                      8                      9
                      A                      A                      A
 Frequencies --    236.9207               265.0397               275.5313
 Red. masses --      1.2507                 2.5236                 1.3575
 Frc consts  --      0.0414                 0.1044                 0.0607
 IR Inten    --     15.1317                 4.6284                13.5567

                     10                     11                     12
                      A                      A                      A
 Frequencies --    290.1723               337.5784               358.3723
 Red. masses --      2.9940                 4.2064                13.5320
 Frc consts  --      0.1485                 0.2824                 1.0240
 IR Inten    --      9.2944                 8.4896                16.7657

                     13                     14                     15
                      A                      A                      A
 Frequencies --    397.8128               420.4308               427.9394
 Red. masses --      3.9763                 3.8254                 5.3719
 Frc consts  --      0.3708                 0.3984                 0.5796
 IR Inten    --      7.6382                 1.9916                50.9707

                     16                     17                     18
                      A                      A                      A
 Frequencies --    453.5861               473.8627               518.1513
 Red. masses --      4.8520                 5.5359                 3.6893
 Frc consts  --      0.5882                 0.7324                 0.5836
 IR Inten    --     91.8661                48.8318                12.8355

                     19                     20                     21
                      A                      A                      A
 Frequencies --    530.0609               615.6689               637.7375
 Red. masses --      4.3475                 4.2957                 5.4095
 Frc consts  --      0.7197                 0.9594                 1.2963
 IR Inten    --      4.5558                59.0534                 6.5498

                     22                     23                     24
                      A                      A                      A
 Frequencies --    673.7893               702.7811               713.2788
 Red. masses --      5.7692                 1.9066                 4.7506
 Frc consts  --      1.5432                 0.5548                 1.4240
 IR Inten    --      8.3044                27.6298                 2.5994

                     25                     26                     27
                      A                      A                      A
 Frequencies --    725.9391               767.1056               795.3400
 Red. masses --      2.4714                 3.1674                 1.9196
 Frc consts  --      0.7674                 1.0982                 0.7154
 IR Inten    --     23.4376                26.6823                27.0041

                     28                     29                     30
                      A                      A                      A
 Frequencies --    803.7949               837.4903               912.9458
 Red. masses --      4.5919                 1.5805                 4.0118
 Frc consts  --      1.7480                 0.6531                 1.9700
 IR Inten    --     39.8732                20.0911                87.1450

                     31                     32                     33
                      A                      A                      A
 Frequencies --    932.1553               952.3018               979.5590
 Red. masses --      1.2548                 1.2833                 7.1350
 Frc consts  --      0.6424                 0.6857                 4.0337
 IR Inten    --      8.6867                24.3812                59.2834

                     34                     35                     36
                      A                      A                      A
 Frequencies --   1019.1690              1030.6199              1054.5573
 Red. masses --      2.0541                 3.2065                 1.6708
 Frc consts  --      1.2571                 2.0067                 1.0948
 IR Inten    --     58.8242                92.2632                63.8452

                     37                     38                     39
                      A                      A                      A
 Frequencies --   1104.7230              1117.3834              1143.6148
 Red. masses --      1.2369                 1.5964                 1.2113
 Frc consts  --      0.8894                 1.1744                 0.9334
 IR Inten    --     22.7279                 6.1691               237.8264

                     40                     41                     42
                      A                      A                      A
 Frequencies --   1163.3939              1186.9805              1211.3189
 Red. masses --      1.4573                 1.8396                 2.7737
 Frc consts  --      1.1621                 1.5271                 2.3979
 IR Inten    --    147.3793                15.3270               246.3157

                     43                     44                     45
                      A                      A                      A
 Frequencies --   1221.9331              1232.0274              1272.8233
 Red. masses --      2.7024                 3.5624                 2.5235
 Frc consts  --      2.3774                 3.1859                 2.4087
 IR Inten    --     27.4968                23.2890               699.5459

                     46                     47                     48
                      A                      A                      A
 Frequencies --   1291.7947              1343.9426              1396.7285
 Red. masses --      2.4886                 4.9069                 2.6777
 Frc consts  --      2.4467                 5.2218                 3.0778
 IR Inten    --     24.1225               294.2870               791.0602

                     49                     50                     51
                      A                      A                      A
 Frequencies --   1419.6872              1425.6620              1450.4920
 Red. masses --      1.2267                 2.6877                 5.5152
 Frc consts  --      1.4568                 3.2186                 6.8366
 IR Inten    --    260.3875               256.3663              1494.1427

                     52                     53                     54
                      A                      A                      A
 Frequencies --   1454.2306              1464.4118              1472.3868
 Red. masses --      1.3291                 1.0642                 1.6864
 Frc consts  --      1.6560                 1.3446                 2.1541
 IR Inten    --     28.2341                81.4428               844.9241

                     55                     56                     57
                      A                      A                      A
 Frequencies --   1480.3726              1489.3692              1503.9321
 Red. masses --      1.6165                 1.0687                 1.2639
 Frc consts  --      2.0873                 1.3967                 1.6843
 IR Inten    --    438.8000                79.3766               758.2416

                     58                     59                     60
                      A                      A                      A
 Frequencies --   1511.2761              1525.4008              1538.9789
 Red. masses --      2.8525                 5.0574                 5.5535
 Frc consts  --      3.8385                 6.9333                 7.7497
 IR Inten    --     24.4888              3970.4327               145.9878

                     61                     62                     63
                      A                      A                      A
 Frequencies --   1591.1619              2848.3641              2862.5543
 Red. masses --      5.5828                 1.0628                 1.0637
 Frc consts  --      8.3278                 5.0805                 5.1355
 IR Inten    --     11.3936               106.3318               114.5370

                     64                     65                     66
                      A                      A                      A
 Frequencies --   2965.6347              3013.5136              3087.4568
 Red. masses --      1.0797                 1.0685                 1.0965
 Frc consts  --      5.5947                 5.7172                 6.1583
 IR Inten    --     50.0985               418.7749               104.6825

                     67                     68                     69
                      A                      A                      A
 Frequencies --   3093.5081              3106.5948              3116.4864
 Red. masses --      1.0825                 1.0906                 1.0899
 Frc consts  --      6.1036                 6.2012                 6.2371
 IR Inten    --     35.3287                64.9351               227.5778

                     70                     71                     72
                      A                      A                      A
 Frequencies --   3129.7259              3150.1452              3156.2034
 Red. masses --      1.0865                 1.0906                 1.0909
 Frc consts  --      6.2706                 6.3766                 6.4026
 IR Inten    --     77.3440                48.6136               124.6761

 - Thermochemistry -
 -------------------
 Temperature   298.150 Kelvin.  Pressure   1.00000 Atm.
 Atom     1 has atomic number  6 and mass  12.00000

 Molecular mass:   201.07898 amu.
 Principal axes and moments of inertia in atomic units:
                           1         2         3
     Eigenvalues --  2458.440872919.612945111.87255
           X           -0.32180   0.94547  -0.05040
           Y            0.91415   0.32412   0.24345
           Z           -0.24651  -0.03227   0.96860
 This molecule is an asymmetric top.
 Rotational symmetry number  1.
 Warning -- assumption of classical behavior for rotation
           may cause significant error
 Rotational temperatures (Kelvin)      0.03523     0.02967     0.01694
 Rotational constants (GHZ):           0.73410     0.61814     0.35305
 Zero-point vibrational energy     522947.6 (Joules/Mol)
                                  124.98747 (Kcal/Mol)
 Warning -- explicit consideration of  20 degrees of freedom as
           vibrations may cause significant error
 Vibrational temperatures:     72.25   103.24   159.50   195.34   236.12
          (Kelvin)            307.02   340.88   381.33   396.43   417.49
                              485.70   515.62   572.36   604.91   615.71
                              652.61   681.78   745.50   762.64   885.81
                              917.56   969.43  1011.15  1026.25  1044.46
                             1103.69  1144.32  1156.48  1204.96  1313.53
                             1341.16  1370.15  1409.37  1466.36  1482.83
                             1517.27  1589.45  1607.67  1645.41  1673.86
                             1707.80  1742.82  1758.09  1772.61  1831.31
                             1858.60  1933.63  2009.58  2042.61  2051.21
                             2086.93  2092.31  2106.96  2118.44  2129.93
                             2142.87  2163.82  2174.39  2194.71  2214.25
                             2289.33  4098.16  4118.58  4266.89  4335.77
                             4442.16  4450.87  4469.70  4483.93  4502.98
                             4532.36  4541.07

 Zero-point correction=                           0.199180 (Hartree/Particle)
 Thermal correction to Energy=                    0.212157
 Thermal correction to Enthalpy=                  0.213102
 Thermal correction to Gibbs Free Energy=         0.159978
 Sum of electronic and zero-point Energies=           -669.023509
 Sum of electronic and thermal Energies=              -669.010531
 Sum of electronic and thermal Enthalpies=            -669.009587
 Sum of electronic and thermal Free Energies=         -669.062711

                     E (Thermal)             CV                S
                      KCal/Mol        Cal/Mol-Kelvin    Cal/Mol-Kelvin
 Total                  133.131             50.949            111.808
 Electronic               0.000              0.000              0.000
 Translational            0.889              2.981             41.800
 Rotational               0.889              2.981             31.973
 Vibrational            131.353             44.987             38.035
 Vibration     1          0.595              1.978              4.809
 Vibration     2          0.598              1.967              4.105
 Vibration     3          0.607              1.940              3.254
 Vibration     4          0.614              1.918              2.863
 Vibration     5          0.623              1.887              2.502
 Vibration     6          0.644              1.821              2.014
 Vibration     7          0.656              1.784              1.826
 Vibration     8          0.671              1.737              1.628
 Vibration     9          0.677              1.719              1.561
 Vibration    10          0.686              1.692              1.473
 Vibration    11          0.718              1.600              1.224
 Vibration    12          0.733              1.558              1.129
 Vibration    13          0.764              1.475              0.971
 Vibration    14          0.783              1.426              0.891
 Vibration    15          0.789              1.409              0.865
 Vibration    16          0.812              1.353              0.785
 Vibration    17          0.831              1.308              0.727
 Vibration    18          0.873              1.210              0.614
 Vibration    19          0.885              1.183              0.587
 Vibration    20          0.975              0.999              0.423

 Optimization completed.
    -- Stationary point found.
 Normal termination of Gaussian 16 at Sat Jan  6 04:20:07 2024.
