 Q-Chem 5.4, Q-Chem, Inc., Pleasanton, CA (2021)
 Q-Chem 5.4.0 for Intel X86 EM64T Linux

User input:
--------------------------------------------------------------
$molecule
-1 2
C                 -0.6391460000      2.6799880000     -0.9636810000
C                 -1.7135230000      2.0640820000     -0.3717310000
C                 -1.5878360000      0.7510950000      0.1574610000
C                  0.6255520000      2.0266890000     -1.0649210000
C                  0.7510740000      0.6956470000     -0.5278170000
C                 -0.3842370000      0.0912560000      0.0776080000
C                  1.7446550000      2.6280480000     -1.6641370000
C                  2.9709790000      1.9703480000     -1.7517940000
C                  3.0951650000      0.6374910000     -1.2135550000
C                  1.9978560000      0.0410180000     -0.6230120000
C                  4.1133170000      2.6100300000     -2.3744690000
C                  5.3387560000      1.8475160000     -2.4165690000
C                  5.4784810000      0.5749790000     -1.9091610000
C                  4.3867060000     -0.1100330000     -1.2823120000
O                  4.1135700000      3.7807120000     -2.8804260000
O                  4.4839170000     -1.2669340000     -0.8117090000
O                  6.3716180000      2.4997940000     -3.0114680000
H                 -0.7360460000      3.6833490000     -1.3677920000
H                 -2.6668270000      2.5792350000     -0.3051900000
H                 -2.4440980000      0.2741150000      0.6231800000
H                 -0.2811150000     -0.9123230000      0.4799530000
H                  1.6719820000      3.6295350000     -2.0747900000
H                  2.1213760000     -0.9618170000     -0.2271330000
H                  6.4307680000      0.0608280000     -1.9757260000
H                  5.9593560000      3.3576220000     -3.2570690000
$end
$rem
MAX_SCF_CYCLES=200
BASIS  =  6-311++G(d,p)
GUI  =  2
JOB_TYPE  =  SP
METHOD  =  B3LYP
SOLVENT_METHOD = PCM
$end
$pcm
theory = CPCM
$end
$solvent
dielectric 37.219
opticaldielectric 1.43
$end

--------------------------------------------------------------

             Standard Nuclear Orientation (Angstroms)
    I     Atom           X                Y                Z
 ----------------------------------------------------------------
    1      C      -0.6391460000     2.6799880000    -0.9636810000
    2      C      -1.7135230000     2.0640820000    -0.3717310000
    3      C      -1.5878360000     0.7510950000     0.1574610000
    4      C       0.6255520000     2.0266890000    -1.0649210000
    5      C       0.7510740000     0.6956470000    -0.5278170000
    6      C      -0.3842370000     0.0912560000     0.0776080000
    7      C       1.7446550000     2.6280480000    -1.6641370000
    8      C       2.9709790000     1.9703480000    -1.7517940000
    9      C       3.0951650000     0.6374910000    -1.2135550000
   10      C       1.9978560000     0.0410180000    -0.6230120000
   11      C       4.1133170000     2.6100300000    -2.3744690000
   12      C       5.3387560000     1.8475160000    -2.4165690000
   13      C       5.4784810000     0.5749790000    -1.9091610000
   14      C       4.3867060000    -0.1100330000    -1.2823120000
   15      O       4.1135700000     3.7807120000    -2.8804260000
   16      O       4.4839170000    -1.2669340000    -0.8117090000
   17      O       6.3716180000     2.4997940000    -3.0114680000
   18      H      -0.7360460000     3.6833490000    -1.3677920000
   19      H      -2.6668270000     2.5792350000    -0.3051900000
   20      H      -2.4440980000     0.2741150000     0.6231800000
   21      H      -0.2811150000    -0.9123230000     0.4799530000
   22      H       1.6719820000     3.6295350000    -2.0747900000
   23      H       2.1213760000    -0.9618170000    -0.2271330000
   24      H       6.4307680000     0.0608280000    -1.9757260000
   25      H       5.9593560000     3.3576220000    -3.2570690000
 ----------------------------------------------------------------

    8    -764.3523900723      9.27e-06  Convergence criterion met
 Total energy in the final basis set =     -764.3523900723

                    Orbital Energies (a.u.)
 --------------------------------------------------------------

 Alpha MOs
 -- Occupied --
-19.1488 -19.0883 -19.0783 -10.2319 -10.2299 -10.2234 -10.1864 -10.1855
-10.1794 -10.1779 -10.1771 -10.1769 -10.1763 -10.1758 -10.1749 -10.1741
-10.1574  -1.0694  -1.0061  -0.9987  -0.8790  -0.8360  -0.7930  -0.7785
 -0.7399  -0.7298  -0.6753  -0.6439  -0.6171  -0.5997  -0.5773  -0.5415
 -0.5319  -0.5032  -0.4919  -0.4652  -0.4587  -0.4421  -0.4377  -0.4336
 -0.4191  -0.4153  -0.4119  -0.4003  -0.3996  -0.3836  -0.3764  -0.3640
 -0.3634  -0.3466  -0.3306  -0.3227  -0.2934  -0.2647  -0.2629  -0.2452
 -0.2385  -0.2280  -0.1509

 Beta MOs
 -- Occupied --
-19.1481 -19.0822 -19.0741 -10.2307 -10.2285 -10.2202 -10.1865 -10.1849
-10.1796 -10.1773 -10.1773 -10.1769 -10.1761 -10.1753 -10.1751 -10.1729
-10.1564  -1.0669  -0.9987  -0.9881  -0.8779  -0.8336  -0.7894  -0.7772
 -0.7385  -0.7278  -0.6663  -0.6423  -0.6146  -0.5993  -0.5746  -0.5394
 -0.5304  -0.5023  -0.4891  -0.4635  -0.4577  -0.4412  -0.4326  -0.4240
 -0.4184  -0.4105  -0.4094  -0.3993  -0.3950  -0.3750  -0.3691  -0.3623
 -0.3481  -0.3454  -0.3300  -0.3122  -0.2889  -0.2575  -0.2495  -0.2411
 -0.2303  -0.2210

          Ground-State Mulliken Net Atomic Charges

     Atom                 Charge (a.u.)    Spin (a.u.)
  --------------------------------------------------------
      1 C                    -0.201702       0.033554
      2 C                    -0.358485      -0.010346
      3 C                    -0.370886       0.044468
      4 C                     0.180290      -0.012909
      5 C                     0.192055       0.047992
      6 C                    -0.183273      -0.021555
      7 C                     0.072695       0.136963
      8 C                     0.299091      -0.033672
      9 C                     0.315535       0.038922
     10 C                     0.130974      -0.017243
     11 C                    -0.773228       0.177202
     12 C                    -0.388711       0.099819
     13 C                     0.438029       0.069015
     14 C                    -0.599591       0.062736
     15 O                    -0.532768       0.231959
     16 O                    -0.498257       0.155780
     17 O                    -0.299532       0.019634
     18 H                     0.181209      -0.001229
     19 H                     0.203400       0.000212
     20 H                     0.202659      -0.002963
     21 H                     0.182211       0.001396
     22 H                     0.151931      -0.008074
     23 H                     0.144102      -0.000503
     24 H                     0.209802      -0.008086
     25 H                     0.302450      -0.003070
  --------------------------------------------------------
  Sum of atomic charges =    -1.000000

                    Cartesian Multipole Moments
 -----------------------------------------------------------------
    Charge (ESU x 10^10)
                -4.8032
    Dipole Moment (Debye)
         X     -22.1250      Y      -5.1509      Z       8.9327
       Tot      24.4098
    Quadrupole Moments (Debye-Ang)
        XX    -200.0360     XY     -22.4300     YY    -131.0800
        XZ      38.4959     YZ      18.0632     ZZ    -124.4703

 Total job time:  50.36s(wall), 343.01s(cpu)
        *  Thank you very much for using Q-Chem.  Have a nice day.  *
