 Gaussian 16, Revision A.03,
 Gaussian 16:  ES64L-G16RevA.03 25-Dec-2016

 ----------------------------------------------------------------
 #P UB3LYP/6-311++G(d,p) SCRF=(PCM,Solvent=n,n-DiMethylFormamide)
 ----------------------------------------------------------------

 ------------------
 Radical PCM in DMF
 ------------------
 Symbolic Z-matrix:
 Charge = -1 Multiplicity = 2

                         Standard orientation:
 ---------------------------------------------------------------------
 Center     Atomic      Atomic             Coordinates (Angstroms)
 Number     Number       Type             X           Y           Z
 ---------------------------------------------------------------------
      1          6           0       -7.193613   -1.208027    0.242780
      2          6           0       -8.291317   -1.033948    1.183084
      3          6           0       -8.893789    0.192577    1.358498
      4          6           0       -8.461144    1.367364    0.611970
      5          6           0       -7.358272    1.194634   -0.327721
      6          6           0       -6.766850   -0.036714   -0.508018
      7          8           0       -6.625482   -2.331366    0.077917
      8          8           0       -9.020130    2.494735    0.772990
      9          6           0       -5.626590   -0.254676   -1.489168
     10          6           0       -6.909835    2.423088   -1.084535
     11          6           0       -8.738480   -2.250069    1.956745
     12          6           0      -10.030202    0.375320    2.334849
     13          6           0       -4.275302   -0.135777   -0.830771
     14          1           0       -5.715781    0.422763   -2.340643
     15          1           0       -5.719384   -1.281210   -1.862409
     16          1           0       -7.448347    3.291029   -0.703109
     17          1           0       -7.120323    2.340252   -2.159218
     18          1           0       -5.833394    2.594602   -0.978567
     19          1           0       -8.138529   -3.109601    1.656396
     20          1           0       -9.796939   -2.478728    1.777836
     21          1           0       -8.627867   -2.106373    3.039434
     22          1           0       -9.732880    0.109865    3.357529
     23          1           0      -10.888063   -0.261615    2.083027
     24          1           0      -10.353149    1.416533    2.322919
     25          6           0       -3.210209    0.590394   -1.200602
     26          6           0       -3.166483    1.485043   -2.417566
     27          6           0       -1.938061    0.553509   -0.376101
     28          6           0       -0.733559   -0.102083   -1.080177
     29          6           0        0.519310   -0.139970   -0.195818
     30          6           0        1.798115   -0.674946   -0.871610
     31          6           0        3.017019   -0.450594    0.046075
     32          6           0        4.386388   -0.722167   -0.591746
     33          6           0        5.553748   -0.389884    0.347461
     34          6           0        6.962799   -0.535454   -0.262220
     35          6           0        8.017687    0.050397    0.698050
     36          6           0        9.435725    0.180628    0.125806
     37          6           0        1.653607   -2.148508   -1.282016
     38          6           0       10.407086    0.862612    1.098323
     39          6           0       11.826885    1.108890    0.553039
     40          6           0       12.576360   -0.196559    0.248958
     41          6           0       12.635545    1.976872    1.527807
     42          1           0       -4.185264   -0.741488    0.068937
     43          1           0       -4.144340    1.598164   -2.884862
     44          1           0       -2.479408    1.098416   -3.180785
     45          1           0       -2.805210    2.486330   -2.149195
     46          1           0       -2.134760    0.016436    0.557667
     47          1           0       -1.656345    1.579332   -0.092711
     48          1           0       -0.500927    0.442668   -2.003661
     49          1           0       -1.022417   -1.114379   -1.380930
     50          1           0        0.312322   -0.740962    0.700602
     51          1           0        0.719568    0.877638    0.164181
     52          1           0        1.959836   -0.083354   -1.785106
     53          1           0        2.905036   -1.074088    0.944026
     54          1           0        2.998050    0.588903    0.397255
     55          1           0        4.480792   -0.122910   -1.507670
     56          1           0        4.447326   -1.769156   -0.902242
     57          1           0        5.487846   -1.019987    1.245414
     58          1           0        5.433881    0.643618    0.696229
     59          6           0        7.276799   -1.991877   -0.637763
     60          1           0        8.049022   -0.563268    1.609122
     61          1           0        7.679965    1.044638    1.016434
     62          1           0        9.394900    0.760252   -0.806410
     63          1           0        9.818678   -0.808010   -0.143713
     64          1           0        0.805663   -2.296063   -1.953985
     65          1           0        1.490548   -2.779171   -0.400278
     66          1           0        2.544317   -2.517984   -1.797117
     67          1           0       10.479808    0.266033    2.018497
     68          1           0        9.979792    1.827781    1.398587
     69          1           0       11.727715    1.667317   -0.388331
     70          1           0       12.062422   -0.801040   -0.502157
     71          1           0       12.678101   -0.804804    1.155137
     72          1           0       13.583486    0.008870   -0.126710
     73          1           0       12.137158    2.931972    1.718944
     74          1           0       13.634101    2.192119    1.135096
     75          1           0       12.760377    1.468766    2.490701
     76          1           0        6.986536    0.064645   -1.183864
     77          1           0        7.264253   -2.630481    0.253275
     78          1           0        8.260796   -2.088762   -1.103260
     79          1           0        6.545737   -2.392911   -1.343248
 ---------------------------------------------------------------------

 SCF Done:  E(UB3LYP) =  -1284.95263846     A.U. after   18 cycles

 The electronic state is 2-A.
 Alpha  occ. eigenvalues --  -19.06606 -19.06555 -10.20711 -10.20639 -10.16919
 Alpha  occ. eigenvalues --  -10.16808 -10.16711 -10.16705 -10.16118 -10.15929
 Alpha  occ. eigenvalues --  -10.15901 -10.15786 -10.15775 -10.15760 -10.15760
 Alpha  occ. eigenvalues --  -10.15738 -10.15733 -10.15720 -10.15715 -10.15700
 Alpha  occ. eigenvalues --  -10.15697 -10.15687 -10.15677 -10.15543 -10.15291
 Alpha  occ. eigenvalues --  -10.15258 -10.15140 -10.15101 -10.14880 -10.14857
 Alpha  occ. eigenvalues --  -10.14800  -0.98877  -0.98599  -0.82676  -0.82238
 Alpha  occ. eigenvalues --   -0.81694  -0.80869  -0.79940  -0.78576  -0.76443
 Alpha  occ. eigenvalues --   -0.74686  -0.72963  -0.71897  -0.71582  -0.69550
 Alpha  occ. eigenvalues --   -0.68048  -0.67921  -0.67516  -0.66861  -0.65751
 Alpha  occ. eigenvalues --   -0.62765  -0.62702  -0.61110  -0.58865  -0.57116
 Alpha  occ. eigenvalues --   -0.55966  -0.55530  -0.54785  -0.53749  -0.53515
 Alpha  occ. eigenvalues --   -0.51117  -0.49442  -0.47862  -0.47413  -0.46586
 Alpha  occ. eigenvalues --   -0.46045  -0.44867  -0.44185  -0.43902  -0.43768
 Alpha  occ. eigenvalues --   -0.43625  -0.42926  -0.42848  -0.42170  -0.41820
 Alpha  occ. eigenvalues --   -0.41397  -0.41149  -0.40545  -0.40437  -0.40271
 Alpha  occ. eigenvalues --   -0.39256  -0.38921  -0.38705  -0.38591  -0.38141
 Alpha  occ. eigenvalues --   -0.38120  -0.37731  -0.37701  -0.37595  -0.37227
 Alpha  occ. eigenvalues --   -0.36881  -0.36731  -0.36383  -0.36000  -0.35769
 Alpha  occ. eigenvalues --   -0.35691  -0.35202  -0.35168  -0.34670  -0.34213
 Alpha  occ. eigenvalues --   -0.33888  -0.33609  -0.33150  -0.32770  -0.32330
 Alpha  occ. eigenvalues --   -0.32191  -0.31961  -0.31699  -0.31630  -0.31469
 Alpha  occ. eigenvalues --   -0.31182  -0.31062  -0.30506  -0.28760  -0.26097
 Alpha  occ. eigenvalues --   -0.23799  -0.23624  -0.22384  -0.22036  -0.14919
 Alpha virt. eigenvalues --   -0.00802  -0.00547  -0.00076   0.00278   0.00388
 Alpha virt. eigenvalues --    0.00591   0.00698   0.00913   0.01158   0.01510
 Alpha virt. eigenvalues --    0.01631   0.01971   0.02259   0.02431   0.02731

  Beta  occ. eigenvalues --  -19.05931 -19.05899 -10.20538 -10.20467 -10.16919
  Beta  occ. eigenvalues --  -10.16806 -10.16711 -10.16705 -10.16118 -10.15901
  Beta  occ. eigenvalues --  -10.15820 -10.15775 -10.15767 -10.15760 -10.15738
  Beta  occ. eigenvalues --  -10.15733 -10.15715 -10.15700 -10.15688 -10.15687
  Beta  occ. eigenvalues --  -10.15677 -10.15621 -10.15602 -10.15535 -10.15291
  Beta  occ. eigenvalues --  -10.15258 -10.15140 -10.15101 -10.14888 -10.14865
  Beta  occ. eigenvalues --  -10.14809  -0.97707  -0.97409  -0.82467  -0.82107
  Beta  occ. eigenvalues --   -0.81561  -0.80805  -0.79920  -0.78442  -0.76419
  Beta  occ. eigenvalues --   -0.74649  -0.72883  -0.71791  -0.71356  -0.69353
  Beta  occ. eigenvalues --   -0.68048  -0.67908  -0.67514  -0.66843  -0.65599
  Beta  occ. eigenvalues --   -0.62677  -0.62104  -0.60997  -0.58840  -0.57110
  Beta  occ. eigenvalues --   -0.55966  -0.55530  -0.54783  -0.53426  -0.53123
  Beta  occ. eigenvalues --   -0.51049  -0.49297  -0.47862  -0.47411  -0.46575
  Beta  occ. eigenvalues --   -0.46001  -0.44853  -0.44177  -0.43898  -0.43572
  Beta  occ. eigenvalues --   -0.43284  -0.42848  -0.42551  -0.42053  -0.41779
  Beta  occ. eigenvalues --   -0.41283  -0.40919  -0.40446  -0.40196  -0.40042
  Beta  occ. eigenvalues --   -0.39114  -0.38793  -0.38553  -0.38540  -0.38141
  Beta  occ. eigenvalues --   -0.37930  -0.37727  -0.37626  -0.37565  -0.37118
  Beta  occ. eigenvalues --   -0.36737  -0.36387  -0.36187  -0.35731  -0.35640
  Beta  occ. eigenvalues --   -0.35177  -0.34861  -0.34634  -0.34206  -0.33868
  Beta  occ. eigenvalues --   -0.33368  -0.33156  -0.32771  -0.32701  -0.32288
  Beta  occ. eigenvalues --   -0.32059  -0.31944  -0.31695  -0.31628  -0.31468
  Beta  occ. eigenvalues --   -0.31182  -0.31047  -0.30487  -0.28749  -0.23728
  Beta  occ. eigenvalues --   -0.23185  -0.22854  -0.21698  -0.21567
  Beta virt. eigenvalues --   -0.07809  -0.00776  -0.00539  -0.00060   0.00324
  Beta virt. eigenvalues --    0.00458   0.00695   0.00919   0.01028   0.01450
  Beta virt. eigenvalues --    0.01623   0.01728   0.02128   0.02295   0.02444

 Mulliken charges and spin densities:
               1          2
     1  C   -1.275912   0.099513
     2  C    0.742277   0.088547
     3  C    0.423119   0.072380
     4  C   -1.356819   0.095756
     5  C    0.701447   0.072472
     6  C    1.060442   0.062671
     7  O   -0.478310   0.237766
     8  O   -0.499387   0.242658
     9  C   -0.122015   0.010173
    10  C   -0.669293   0.001777
    11  C   -0.523228   0.000365
    12  C   -0.518112   0.000911
    13  C   -0.622575  -0.002144
    14  H    0.164195  -0.000615
    15  H    0.225697   0.002889
    16  H    0.179092  -0.002073
    17  H    0.169778   0.004769
    18  H    0.162242   0.003424
    19  H    0.178051  -0.001460
    20  H    0.145736   0.003325
    21  H    0.148346   0.003370
    22  H    0.145005   0.003319
    23  H    0.146148   0.003394
    24  H    0.184293  -0.001639
    25  C    1.335225   0.006682
    26  C   -0.789532  -0.001794
    27  C   -1.239487  -0.006122
    28  C   -0.129138   0.001275
    29  C   -0.878763  -0.000307
    30  C    1.372476  -0.000194
    31  C   -0.973117   0.000193
    32  C   -0.054011  -0.000019
    33  C   -1.033813   0.000004
    34  C    1.352008  -0.000000
    35  C   -0.769921  -0.000000
    36  C    0.050200  -0.000000
    37  C   -0.790597  -0.000021
    38  C   -0.779300  -0.000000
    39  C    0.553115  -0.000000
    40  C   -0.696629  -0.000000
    41  C   -0.662878   0.000000
    42  H    0.234331  -0.001804
    43  H    0.105257   0.000200
    44  H    0.167843  -0.000121
    45  H    0.165789   0.000113
    46  H    0.120690  -0.000003
    47  H    0.170544   0.000297
    48  H    0.130502   0.000268
    49  H    0.146215  -0.000120
    50  H    0.140449   0.000034
    51  H    0.122056  -0.000114
    52  H    0.137240  -0.000033
    53  H    0.151828  -0.000003
    54  H    0.105002   0.000021
    55  H    0.157451   0.000001
    56  H    0.092139   0.000002
    57  H    0.147810  -0.000000
    58  H    0.110639  -0.000001
    59  C   -0.773698   0.000000
    60  H    0.142891   0.000000
    61  H    0.105914   0.000000
    62  H    0.148055   0.000000
    63  H    0.092313   0.000000
    64  H    0.140477   0.000017
    65  H    0.161430   0.000002
    66  H    0.142015  -0.000005
    67  H    0.142683  -0.000000
    68  H    0.128176  -0.000000
    69  H    0.140335   0.000000
    70  H    0.141245   0.000000
    71  H    0.147594  -0.000000
    72  H    0.146124   0.000000
    73  H    0.135836   0.000000
    74  H    0.157090  -0.000000
    75  H    0.139851   0.000000
    76  H    0.133651  -0.000000
    77  H    0.159778   0.000000
    78  H    0.143962   0.000000
    79  H    0.142435  -0.000000
 Sum of Mulliken charges =  -1.00000   1.00000

 Dipole moment (field-independent basis, Debye):
    X=             37.3699    Y=             -0.1329    Z=             -2.4275  Tot=             37.4489
 Quadrupole moment (field-independent basis, Debye-Ang):
   XX=           -505.2438   YY=           -235.6691   ZZ=           -204.3357
   XY=             21.1508   XZ=             15.3525   YZ=             -7.8571

 Normal termination of Gaussian 16 at Sun Jan 21 07:40:34 2024.
