 Gaussian 16, Revision A.03,
 Gaussian 16:  ES64L-G16RevA.03 25-Dec-2016

 ----------------------------------------------------------------
 #P UB3LYP/6-311++G(d,p) SCRF=(PCM,Solvent=n,n-DiMethylFormamide)
 ----------------------------------------------------------------

 ------------------
 Radical PCM in DMF
 ------------------
 Symbolic Z-matrix:
 Charge = -1 Multiplicity = 2

                         Standard orientation:
 ---------------------------------------------------------------------
 Center     Atomic      Atomic             Coordinates (Angstroms)
 Number     Number       Type             X           Y           Z
 ---------------------------------------------------------------------
      1          6           0       11.655423    1.449318    1.060927
      2          6           0       12.170237    2.463990    0.275569
      3          6           0       11.525807    2.822631   -0.925718
      4          6           0       10.484829    0.760029    0.676531
      5          6           0        9.831934    1.121305   -0.536950
      6          6           0       10.375715    2.156515   -1.317250
      7          6           0        9.946444   -0.302194    1.499517
      8          6           0        8.745042   -0.947881    1.023105
      9          6           0        8.092547   -0.628704   -0.148959
     10          6           0        8.602346    0.434800   -0.987443
     11          8           0       10.448224   -0.704605    2.600377
     12          8           0        8.030903    0.767336   -2.058775
     13          8           0        8.294186   -1.935206    1.850936
     14          6           0        6.839627   -1.348457   -0.576347
     15          6           0        5.548720   -0.628564   -0.141068
     16          6           0        4.274669   -1.339688   -0.609724
     17          6           0        2.983597   -0.631804   -0.183008
     18          6           0        1.705307   -1.334708   -0.654668
     19          6           0        0.417025   -0.622576   -0.226483
     20          6           0       -0.862333   -1.320223   -0.701891
     21          6           0       -2.147143   -0.603457   -0.270118
     22          6           0       -3.423958   -1.303246   -0.750884
     23          6           0       -4.683345   -0.576288   -0.308140
     24          1           0       12.133150    1.155478    1.988803
     25          1           0       13.071754    2.985780    0.583698
     26          1           0       11.930929    3.619678   -1.542091
     27          1           0        9.859064    2.411927   -2.235552
     28          1           0        8.965707   -1.918692    2.568612
     29          1           0        6.840697   -2.362933   -0.164555
     30          1           0        6.842791   -1.420224   -1.668796
     31          1           0        5.568963    0.390280   -0.542304
     32          1           0        5.538799   -0.542046    0.952154
     33          1           0        4.267625   -2.367617   -0.221634
     34          1           0        4.293614   -1.426716   -1.704293
     35          1           0        2.993556    0.396068   -0.568407
     36          1           0        2.964740   -0.544717    0.911453
     37          1           0        1.694580   -2.363185   -0.269941
     38          1           0        1.723583   -1.420883   -1.749137
     39          1           0        0.430255    0.406666   -0.608385
     40          1           0        0.397607   -0.538918    0.868128
     41          1           0       -0.877742   -2.349364   -0.320521
     42          1           0       -0.845252   -1.402158   -1.796287
     43          1           0       -2.128675    0.426154   -0.650239
     44          1           0       -2.163090   -0.523869    0.824617
     45          1           0       -3.456891   -2.328927   -0.368106
     46          1           0       -3.424376   -1.373962   -1.843843
     47          1           0       -4.698442    0.447655   -0.703327
     48          1           0       -4.732772   -0.519894    0.786964
     49          8           0       -5.815154   -1.298613   -0.803261
     50          6           0       -7.067917   -0.834082   -0.530375
     51          6           0       -7.348211    0.316103    0.214056
     52          6           0       -8.129640   -1.585359   -1.046212
     53          6           0       -8.674043    0.694763    0.431925
     54          1           0       -6.550995    0.919874    0.626321
     55          6           0       -9.440886   -1.188398   -0.819486
     56          1           0       -7.903981   -2.475643   -1.621384
     57          6           0       -9.747483   -0.040738   -0.075699
     58          1           0       -8.860628    1.591180    1.014679
     59          1           0      -10.248841   -1.785867   -1.231243
     60          6           0      -11.188817    0.377625    0.153052
     61          6           0      -11.597236    0.323599    1.653087
     62          1           0      -10.748220    0.626013    2.273161
     63          1           0      -11.810821   -0.717128    1.918584
     64          6           0      -12.816668    1.217209    1.978643
     65          1           0      -12.477392    2.219734    2.265339
     66          1           0      -13.350453    0.818248    2.846632
     67          6           0      -13.756037    1.340656    0.773610
     68          1           0      -14.661682    1.892309    1.043533
     69          1           0      -14.087441    0.338297    0.477603
     70          6           0      -13.044860    2.033373   -0.412699
     71          1           0      -13.220308    3.113527   -0.370080
     72          1           0      -13.487721    1.688688   -1.353052
     73          6           0      -11.520910    1.768297   -0.426913
     74          1           0      -11.132106    1.852829   -1.445329
     75          1           0      -11.001697    2.533162    0.161725
     76          1           0      -11.811847   -0.345169   -0.387642
 ---------------------------------------------------------------------

 SCF Done:  E(UB3LYP) =  -1544.98991640     A.U. after   19 cycles

 The electronic state is 2-A.
 Alpha  occ. eigenvalues --  -19.15506 -19.14254 -19.08515 -19.07305 -10.23631
 Alpha  occ. eigenvalues --  -10.22455 -10.22211 -10.22035 -10.21984 -10.17608
 Alpha  occ. eigenvalues --  -10.17571 -10.17531 -10.17510 -10.17402 -10.17380
 Alpha  occ. eigenvalues --  -10.17256 -10.17248 -10.17179 -10.17143 -10.17065
 Alpha  occ. eigenvalues --  -10.16912 -10.16841 -10.16577 -10.16139 -10.16135
 Alpha  occ. eigenvalues --  -10.16124 -10.16116 -10.16062 -10.16016 -10.15975
 Alpha  occ. eigenvalues --  -10.15915 -10.15819 -10.15737 -10.15728 -10.15656
 Alpha  occ. eigenvalues --  -10.15590  -1.07030  -1.06246  -0.99847  -0.99497
 Alpha  occ. eigenvalues --   -0.86389  -0.85797  -0.82870  -0.81536  -0.81073
 Alpha  occ. eigenvalues --   -0.79673  -0.77898  -0.76587  -0.75406  -0.75090
 Alpha  occ. eigenvalues --   -0.74901  -0.73516  -0.72947  -0.71132  -0.69219
 Alpha  occ. eigenvalues --   -0.67124  -0.65180  -0.62862  -0.62616  -0.61542
 Alpha  occ. eigenvalues --   -0.60996  -0.60350  -0.58970  -0.58248  -0.57817
 Alpha  occ. eigenvalues --   -0.57292  -0.57106  -0.56687  -0.53941  -0.53608
 Alpha  occ. eigenvalues --   -0.52570  -0.50366  -0.49710  -0.49592  -0.48436
 Alpha  occ. eigenvalues --   -0.48341  -0.47836  -0.47019  -0.46420  -0.45494
 Alpha  occ. eigenvalues --   -0.45184  -0.45117  -0.43713  -0.43539  -0.43284
 Alpha  occ. eigenvalues --   -0.43102  -0.42716  -0.42657  -0.42183  -0.41996
 Alpha  occ. eigenvalues --   -0.41474  -0.40987  -0.40536  -0.39953  -0.39470
 Alpha  occ. eigenvalues --   -0.39395  -0.38823  -0.38709  -0.37950  -0.37902
 Alpha  occ. eigenvalues --   -0.37363  -0.37119  -0.36785  -0.36571  -0.35931
 Alpha  occ. eigenvalues --   -0.35811  -0.35614  -0.35178  -0.34820  -0.34656
 Alpha  occ. eigenvalues --   -0.34370  -0.34193  -0.33833  -0.33550  -0.32894
 Alpha  occ. eigenvalues --   -0.32869  -0.32617  -0.32122  -0.32083  -0.31915
 Alpha  occ. eigenvalues --   -0.31698  -0.30452  -0.30261  -0.29868  -0.29628
 Alpha  occ. eigenvalues --   -0.26649  -0.26085  -0.25898  -0.25735  -0.23827
 Alpha  occ. eigenvalues --   -0.22675  -0.22294  -0.15007
 Alpha virt. eigenvalues --   -0.03233  -0.01924  -0.00785  -0.00715  -0.00427
 Alpha virt. eigenvalues --   -0.00263  -0.00118   0.00355   0.00473   0.00751
 Alpha virt. eigenvalues --    0.00849   0.01136   0.01339   0.01541   0.01731

  Beta  occ. eigenvalues --  -19.15506 -19.14208 -19.07887 -19.06772 -10.23631
  Beta  occ. eigenvalues --  -10.22455 -10.22079 -10.21933 -10.21699 -10.17608
  Beta  occ. eigenvalues --  -10.17571 -10.17531 -10.17510 -10.17386 -10.17380
  Beta  occ. eigenvalues --  -10.17252 -10.17248 -10.17070 -10.17054 -10.17014
  Beta  occ. eigenvalues --  -10.16937 -10.16841 -10.16577 -10.16135 -10.16124
  Beta  occ. eigenvalues --  -10.16116 -10.16062 -10.16059 -10.16016 -10.15975
  Beta  occ. eigenvalues --  -10.15915 -10.15818 -10.15737 -10.15735 -10.15654
  Beta  occ. eigenvalues --  -10.15582  -1.07030  -1.06032  -0.98917  -0.98434
  Beta  occ. eigenvalues --   -0.86389  -0.85562  -0.82870  -0.81477  -0.80903
  Beta  occ. eigenvalues --   -0.79564  -0.77813  -0.76524  -0.75385  -0.74910
  Beta  occ. eigenvalues --   -0.74794  -0.73516  -0.72890  -0.71086  -0.69066
  Beta  occ. eigenvalues --   -0.66569  -0.64924  -0.62852  -0.62550  -0.61392
  Beta  occ. eigenvalues --   -0.60991  -0.60259  -0.58877  -0.58234  -0.57774
  Beta  occ. eigenvalues --   -0.57274  -0.57047  -0.56480  -0.53941  -0.53435
  Beta  occ. eigenvalues --   -0.52570  -0.50138  -0.49710  -0.49592  -0.48341
  Beta  occ. eigenvalues --   -0.48272  -0.47718  -0.47019  -0.46310  -0.45431
  Beta  occ. eigenvalues --   -0.45131  -0.45076  -0.43539  -0.43369  -0.43099
  Beta  occ. eigenvalues --   -0.42937  -0.42602  -0.42420  -0.42149  -0.41731
  Beta  occ. eigenvalues --   -0.41019  -0.40855  -0.40334  -0.39814  -0.39337
  Beta  occ. eigenvalues --   -0.39329  -0.38763  -0.37868  -0.37772  -0.37643
  Beta  occ. eigenvalues --   -0.37282  -0.37110  -0.36710  -0.36047  -0.35904
  Beta  occ. eigenvalues --   -0.35655  -0.35386  -0.35073  -0.34787  -0.34304
  Beta  occ. eigenvalues --   -0.34101  -0.33799  -0.33448  -0.32855  -0.32832
  Beta  occ. eigenvalues --   -0.32811  -0.32489  -0.32108  -0.32076  -0.31898
  Beta  occ. eigenvalues --   -0.31651  -0.30451  -0.30193  -0.29868  -0.29627
  Beta  occ. eigenvalues --   -0.26085  -0.25347  -0.25029  -0.24683  -0.23324
  Beta  occ. eigenvalues --   -0.22294  -0.21779
  Beta virt. eigenvalues --   -0.08478  -0.02479  -0.01924  -0.00720  -0.00446
  Beta virt. eigenvalues --   -0.00263  -0.00112   0.00291   0.00375   0.00513
  Beta virt. eigenvalues --    0.00763   0.00853   0.01143   0.01345   0.01546

 Mulliken charges and spin densities:
               1          2
     1  C    0.065500   0.074389
     2  C   -0.390350  -0.001251
     3  C   -0.421706   0.072970
     4  C    0.283962  -0.005200
     5  C    0.078484   0.064729
     6  C    0.102921   0.002465
     7  C   -0.830857   0.168558
     8  C   -0.622059   0.056616
     9  C    1.848891   0.052047
    10  C   -0.762611   0.074187
    11  O   -0.524934   0.229540
    12  O   -0.452582   0.198034
    13  O   -0.284191   0.015962
    14  C   -0.305609   0.011509
    15  C   -0.622589  -0.003170
    16  C   -0.201638   0.002534
    17  C   -0.157248  -0.002157
    18  C   -0.239160  -0.000615
    19  C   -0.385113  -0.000035
    20  C   -0.242922   0.000202
    21  C   -0.152023  -0.000028
    22  C   -0.319854   0.000008
    23  C   -0.674642   0.000019
    24  H    0.167128  -0.004070
    25  H    0.182210  -0.000644
    26  H    0.178685  -0.005182
    27  H    0.164383  -0.000278
    28  H    0.291096  -0.003680
    29  H    0.213174  -0.000631
    30  H    0.198129   0.002570
    31  H    0.175414  -0.001631
    32  H    0.164681   0.002121
    33  H    0.110601  -0.000350
    34  H    0.113529   0.000550
    35  H    0.123950  -0.000045
    36  H    0.124205  -0.000024
    37  H    0.133683  -0.000008
    38  H    0.134025   0.000002
    39  H    0.131712   0.000003
    40  H    0.131515  -0.000005
    41  H    0.127917  -0.000011
    42  H    0.127589   0.000005
    43  H    0.120717  -0.000002
    44  H    0.122177   0.000001
    45  H    0.164908   0.000003
    46  H    0.166624  -0.000002
    47  H    0.195954  -0.000000
    48  H    0.194544   0.000001
    49  O   -0.102643   0.000000
    50  C    0.191806  -0.000001
    51  C   -0.127916   0.000001
    52  C   -0.314837  -0.000002
    53  C   -0.406857  -0.000001
    54  H    0.177615  -0.000001
    55  C   -0.253708   0.000000
    56  H    0.191668  -0.000000
    57  C    0.647707   0.000001
    58  H    0.212503   0.000000
    59  H    0.180190   0.000000
    60  C    0.383948  -0.000001
    61  C   -0.557720  -0.000000
    62  H    0.152096  -0.000000
    63  H    0.163685   0.000000
    64  C   -0.446953   0.000000
    65  H    0.131262   0.000000
    66  H    0.169575   0.000000
    67  C   -0.272869  -0.000000
    68  H    0.178138   0.000000
    69  H    0.134979   0.000000
    70  C   -0.498427  -0.000000
    71  H    0.156122  -0.000000
    72  H    0.145230   0.000000
    73  C   -0.486938   0.000000
    74  H    0.174076   0.000000
    75  H    0.141715  -0.000000
    76  H    0.188334  -0.000000
 Sum of Mulliken charges =  -1.00000   1.00000

 Dipole moment (field-independent basis, Debye):
    X=            -42.6184    Y=              1.6978    Z=             -0.0512  Tot=             42.6523
 Quadrupole moment (field-independent basis, Debye-Ang):
   XX=           -626.7327   YY=           -229.0647   ZZ=           -249.3446
   XY=             -2.6385   XZ=            -25.0676   YZ=              8.1893

 Normal termination of Gaussian 16 at Thu Mar  7 02:44:20 2024.
