 Q-Chem 5.4, Q-Chem, Inc., Pleasanton, CA (2021)
 Q-Chem 5.4.0 for Intel X86 EM64T Linux

User input:
--------------------------------------------------------------
$molecule
-1 2
C                 -4.3820420000     -0.4547770000     -0.1039920000
C                 -2.8955010000     -0.7008730000     -0.1126800000
C                 -2.3921110000     -1.9896050000     -0.3134980000
C                 -1.0375520000     -2.2544550000     -0.2921500000
Cl                -0.6283590000     -3.9616820000     -0.5698750000
C                 -0.0772720000     -1.2325960000     -0.0846940000
C                  1.3696830000     -1.5083400000     -0.0458870000
O                  1.8510710000     -2.6592930000     -0.1227990000
C                  2.2615360000     -0.3525940000      0.0918290000
C                  3.6573560000     -0.5655430000      0.0995200000
C                  4.5387850000      0.4899690000      0.2200020000
C                  4.0453590000      1.8077190000      0.3410210000
C                  2.6845420000      2.0360000000      0.3384050000
C                  1.7673030000      0.9671050000      0.2152100000
C                  0.3378960000      1.2462740000      0.2251930000
O                 -0.0542510000      2.4523830000      0.3383930000
C                 -0.5780550000      0.1159610000      0.0901250000
C                 -1.9970920000      0.3539200000      0.0975360000
N                 -2.4964250000      1.6178130000      0.3555690000
H                 -4.7127610000     -0.0069810000      0.8418560000
H                 -4.6976840000      0.2280180000     -0.9063160000
H                 -4.9300760000     -1.3894510000     -0.2429080000
H                 -3.0809960000     -2.8094930000     -0.4817600000
H                  4.0043570000     -1.5876590000      0.0054300000
H                  5.6095920000      0.3089030000      0.2220400000
H                  4.7371000000      2.6394870000      0.4372680000
H                  2.2771770000      3.0353330000      0.4321830000
H                 -1.7738520000      2.3439740000      0.3250670000
H                 -3.4077280000      1.8304850000     -0.0170230000
$end
$rem
MAX_SCF_CYCLES=200
BASIS  =  6-311++G(d,p)
GUI  =  2
JOB_TYPE  =  SP
METHOD  =  B3LYP
SOLVENT_METHOD = COSMO
$end
$solvent
dielectric 37.219
opticaldielectric 1.43
$end

--------------------------------------------------------------

             Standard Nuclear Orientation (Angstroms)
    I     Atom           X                Y                Z
 ----------------------------------------------------------------
    1      C       4.2637947471    -1.6026792047     0.0040246952
    2      C       2.9586831279    -0.8496709185    -0.0062246802
    3      C       2.9475886321     0.5478565212    -0.0430145737
    4      C       1.7703742156     1.2682495153    -0.0178849949
    5      Cl      1.9975709201     3.0302454178    -0.0721640308
    6      C       0.5038843504     0.6331556090     0.0271776024
    7      C      -0.7572200931     1.3941377974     0.0689052960
    8      O      -0.8039957796     2.6413541554     0.1367732690
    9      C      -2.0011867917     0.6188804032     0.0284193437
   10      C      -3.2340215996     1.3072299285     0.0320480913
   11      C      -4.4323533460     0.6234006251    -0.0117364453
   12      C      -4.4350935202    -0.7881300203    -0.0581434156
   13      C      -3.2406667561    -1.4789877812    -0.0596351596
   14      C      -2.0040100684    -0.7950230984    -0.0158920261
   15      C      -0.7638908798    -1.5587710569    -0.0101634596
   16      O      -0.8222156850    -2.8300585103    -0.0516225635
   17      C       0.4936380932    -0.8159261279     0.0300779432
   18      C       1.7384941698    -1.5374568060     0.0385776663
   19      N       1.7504235286    -2.9172547513     0.1353005176
   20      H       4.3527159947    -2.2466701904     0.8882720450
   21      H       4.3784360308    -2.2529670091    -0.8754898486
   22      H       5.1096459974    -0.9114570136     0.0054216673
   23      H       3.8875371980     1.0863717831    -0.0828766209
   24      H      -3.1984538125     2.3895321377     0.0686622990
   25      H      -5.3717322733     1.1683612632    -0.0103892294
   26      H      -5.3768347669    -1.3281596246    -0.0912878368
   27      H      -3.2118490959    -2.5613577088    -0.0920679168
   28      H       0.8251651465    -3.3333979412    -0.0098672548
   29      H       2.5553052668    -3.3916020155    -0.2411133454
 ----------------------------------------------------------------

   11   -1243.3399655234      4.62e-06  Convergence criterion met
 Total energy in the final basis set =    -1243.3399655234
    4   -1243.4217394683      8.66e-06  Convergence criterion met
 Total energy in the final basis set =    -1243.4217394683

                    Orbital Energies (a.u.)
 --------------------------------------------------------------

 Alpha MOs
 -- Occupied --
******** -19.0815 -19.0768 -14.3043 -10.2308 -10.2301 -10.2245 -10.2170
-10.1877 -10.1818 -10.1774 -10.1755 -10.1728 -10.1726 -10.1722 -10.1721
-10.1696 -10.1692 -10.1645  -9.4573  -7.2216  -7.2126  -7.2116  -1.0104
 -1.0078  -0.9170  -0.8753  -0.8582  -0.8200  -0.7942  -0.7537  -0.7507
 -0.7222  -0.6999  -0.6599  -0.6338  -0.6162  -0.5791  -0.5595  -0.5476
 -0.5199  -0.5071  -0.4799  -0.4735  -0.4531  -0.4467  -0.4432  -0.4343
 -0.4235  -0.4209  -0.4163  -0.4147  -0.4015  -0.3901  -0.3888  -0.3766
 -0.3722  -0.3659  -0.3504  -0.3493  -0.3406  -0.3374  -0.3120  -0.2973
 -0.2681  -0.2573  -0.2500  -0.2490  -0.2345  -0.2127  -0.1410

 Beta MOs
 -- Occupied --
******** -19.0766 -19.0713 -14.3041 -10.2287 -10.2286 -10.2240 -10.2168
-10.1868 -10.1817 -10.1762 -10.1751 -10.1722 -10.1721 -10.1717 -10.1713
-10.1696 -10.1693 -10.1646  -9.4572  -7.2216  -7.2124  -7.2115  -1.0014
 -0.9986  -0.9158  -0.8739  -0.8563  -0.8187  -0.7909  -0.7518  -0.7487
 -0.7202  -0.6973  -0.6546  -0.6317  -0.6142  -0.5781  -0.5574  -0.5459
 -0.5182  -0.5062  -0.4778  -0.4712  -0.4521  -0.4454  -0.4421  -0.4280
 -0.4230  -0.4196  -0.4096  -0.4086  -0.3994  -0.3884  -0.3758  -0.3712
 -0.3706  -0.3635  -0.3490  -0.3408  -0.3367  -0.3312  -0.3112  -0.2924
 -0.2511  -0.2502  -0.2456  -0.2441  -0.2298  -0.2041

          Ground-State Mulliken Net Atomic Charges

     Atom                 Charge (a.u.)    Spin (a.u.)
  --------------------------------------------------------
      1 C                    -0.432692      -0.003308
      2 C                     0.388563       0.084849
      3 C                    -0.777538       0.017261
      4 C                     0.983448       0.052707
      5 Cl                    0.318753       0.004447
      6 C                     0.363547       0.058203
      7 C                    -1.397454       0.089058
      8 O                    -0.374389       0.197469
      9 C                    -0.037645       0.041076
     10 C                     0.125038       0.024521
     11 C                    -0.473630       0.038430
     12 C                    -0.547980       0.028150
     13 C                     0.112587       0.035034
     14 C                    -0.204810       0.009199
     15 C                    -0.476405       0.122438
     16 O                    -0.478471       0.177427
     17 C                     0.185001      -0.003575
     18 C                     0.025989       0.018520
     19 N                    -0.427380       0.013839
     20 H                     0.183378       0.004191
     21 H                     0.184850       0.004065
     22 H                     0.181584       0.000117
     23 H                     0.198470      -0.002823
     24 H                     0.172217      -0.001351
     25 H                     0.204035      -0.003154
     26 H                     0.201978      -0.002478
     27 H                     0.179750      -0.001278
     28 H                     0.338004      -0.002230
     29 H                     0.281201      -0.000802
  --------------------------------------------------------
  Sum of atomic charges =    -1.000000

                    Cartesian Multipole Moments
 -----------------------------------------------------------------
    Charge (ESU x 10^10)
                -4.8032
    Dipole Moment (Debye)
         X       3.7281      Y      -4.0038      Z      -1.1372
       Tot       5.5877
    Quadrupole Moments (Debye-Ang)
        XX    -111.7161     XY     -10.0828     YY    -154.1685
        XZ      -1.8520     YZ       2.3017     ZZ    -125.2397

 Total job time:  106.85s(wall), 827.09s(cpu)
        *  Thank you very much for using Q-Chem.  Have a nice day.  *
