 Gaussian 16, Revision A.03,
 Gaussian 16:  ES64L-G16RevA.03 25-Dec-2016

 --------------------------------------
 #P UB3LYP/6-311++G(d,p) nosym opt freq
 --------------------------------------

 -------
 Radical
 -------
 Symbolic Z-matrix:
 Charge = -1 Multiplicity = 2

 SCF Done:  E(UB3LYP) =  -1243.33992617     A.U. after   24 cycles
 Optimization completed.
    -- Stationary point found.
 Normal termination of Gaussian 16 at Wed Dec 27 19:57:05 2023.

 ----------------------------------------------------------------------
 #P Geom=AllCheck Guess=TCheck SCRF=Check GenChk UB3LYP/6-311++G(d,p) F
 req
 ----------------------------------------------------------------------

 Structure from the checkpoint file:  "162-rad.chk"
 -------
 Radical
 -------
 Charge = -1 Multiplicity = 2

                          Input orientation:
 ---------------------------------------------------------------------
 Center     Atomic      Atomic             Coordinates (Angstroms)
 Number     Number       Type             X           Y           Z
 ---------------------------------------------------------------------
      1          6           0       -4.382042   -0.454777   -0.103992
      2          6           0       -2.895501   -0.700873   -0.112680
      3          6           0       -2.392111   -1.989605   -0.313498
      4          6           0       -1.037552   -2.254455   -0.292150
      5         17           0       -0.628359   -3.961682   -0.569875
      6          6           0       -0.077272   -1.232596   -0.084694
      7          6           0        1.369683   -1.508340   -0.045887
      8          8           0        1.851071   -2.659293   -0.122799
      9          6           0        2.261536   -0.352594    0.091829
     10          6           0        3.657356   -0.565543    0.099520
     11          6           0        4.538785    0.489969    0.220002
     12          6           0        4.045359    1.807719    0.341021
     13          6           0        2.684542    2.036000    0.338405
     14          6           0        1.767303    0.967105    0.215210
     15          6           0        0.337896    1.246274    0.225193
     16          8           0       -0.054251    2.452383    0.338393
     17          6           0       -0.578055    0.115961    0.090125
     18          6           0       -1.997092    0.353920    0.097536
     19          7           0       -2.496425    1.617813    0.355569
     20          1           0       -4.712761   -0.006981    0.841856
     21          1           0       -4.697684    0.228018   -0.906316
     22          1           0       -4.930076   -1.389451   -0.242908
     23          1           0       -3.080996   -2.809493   -0.481760
     24          1           0        4.004357   -1.587659    0.005430
     25          1           0        5.609592    0.308903    0.222040
     26          1           0        4.737100    2.639487    0.437268
     27          1           0        2.277177    3.035333    0.432183
     28          1           0       -1.773852    2.343974    0.325067
     29          1           0       -3.407728    1.830485   -0.017023
 ---------------------------------------------------------------------

 SCF Done:  E(UB3LYP) =  -1243.33992617     A.U. after    1 cycles

 Alpha  occ. eigenvalues -- -101.41931 -18.95502 -18.94642 -14.19450 -10.10600
 Alpha  occ. eigenvalues --  -10.10573 -10.10262 -10.10218 -10.07850 -10.06657
 Alpha  occ. eigenvalues --  -10.06537 -10.06213 -10.06210 -10.06145 -10.06081
 Alpha  occ. eigenvalues --  -10.05441 -10.05347 -10.05274 -10.05179  -9.33397
 Alpha  occ. eigenvalues --   -7.09854  -7.08915  -7.08819  -0.88212  -0.87743
 Alpha  occ. eigenvalues --   -0.80490  -0.75542  -0.74010  -0.70242  -0.68134
 Alpha  occ. eigenvalues --   -0.64106  -0.63332  -0.60768  -0.59064  -0.54361
 Alpha  occ. eigenvalues --   -0.51794  -0.50337  -0.46507  -0.44176  -0.43510
 Alpha  occ. eigenvalues --   -0.40484  -0.39496  -0.36467  -0.35471  -0.34155
 Alpha  occ. eigenvalues --   -0.33586  -0.33020  -0.32717  -0.31145  -0.30708
 Alpha  occ. eigenvalues --   -0.30189  -0.28975  -0.28373  -0.28003  -0.26493
 Alpha  occ. eigenvalues --   -0.26221  -0.26076  -0.25250  -0.23602  -0.22676
 Alpha  occ. eigenvalues --   -0.22324  -0.21962  -0.18700  -0.17663  -0.14655
 Alpha  occ. eigenvalues --   -0.13807  -0.13267  -0.12363  -0.10471  -0.09448
 Alpha  occ. eigenvalues --   -0.01705
 Alpha virt. eigenvalues --    0.06823   0.06931   0.08147   0.09039   0.09289
 Alpha virt. eigenvalues --    0.10116   0.10803   0.11130   0.11682   0.12044
 Alpha virt. eigenvalues --    0.12123   0.13330   0.13724   0.14996   0.15358

  Beta  occ. eigenvalues -- -101.41927 -18.94962 -18.94040 -14.19435 -10.10583
  Beta  occ. eigenvalues --  -10.10380 -10.10214 -10.10167 -10.07858 -10.06543
  Beta  occ. eigenvalues --  -10.06425 -10.06189 -10.06151 -10.06110 -10.06025
  Beta  occ. eigenvalues --  -10.05438 -10.05367 -10.05207 -10.05082  -9.33394
  Beta  occ. eigenvalues --   -7.09853  -7.08901  -7.08817  -0.87296  -0.86722
  Beta  occ. eigenvalues --   -0.80381  -0.75407  -0.73829  -0.70132  -0.67812
  Beta  occ. eigenvalues --   -0.63921  -0.63153  -0.60603  -0.58807  -0.53775
  Beta  occ. eigenvalues --   -0.51601  -0.50125  -0.46419  -0.43998  -0.43340
  Beta  occ. eigenvalues --   -0.40320  -0.39404  -0.36301  -0.35210  -0.34044
  Beta  occ. eigenvalues --   -0.33459  -0.32893  -0.32625  -0.31059  -0.30679
  Beta  occ. eigenvalues --   -0.29199  -0.28867  -0.27910  -0.27676  -0.26352
  Beta  occ. eigenvalues --   -0.25803  -0.25307  -0.24445  -0.23463  -0.21928
  Beta  occ. eigenvalues --   -0.21581  -0.21252  -0.18623  -0.17249  -0.13217
  Beta  occ. eigenvalues --   -0.12705  -0.12494  -0.11879  -0.09940  -0.08699
  Beta virt. eigenvalues --    0.04004   0.06926   0.07731   0.08139   0.09266
  Beta virt. eigenvalues --    0.09965   0.10110   0.10845   0.11289   0.11933
  Beta virt. eigenvalues --    0.12055   0.12125   0.13336   0.13721   0.14996

 Mulliken charges and spin densities:
               1          2
     1  C   -0.429885  -0.002538
     2  C    0.467609   0.068942
     3  C   -0.836870   0.042884
     4  C    1.079273   0.025082
     5  Cl   0.341667   0.001448
     6  C    0.347492   0.086003
     7  C   -1.613059   0.041790
     8  O   -0.237746   0.223350
     9  C    0.083175   0.060900
    10  C    0.136976   0.009338
    11  C   -0.384642   0.046994
    12  C   -0.483553   0.024308
    13  C    0.121425   0.032208
    14  C   -0.081308   0.011657
    15  C   -0.660476   0.104847
    16  O   -0.370530   0.198822
    17  C    0.187504   0.008947
    18  C    0.022389   0.014129
    19  N   -0.359841   0.008634
    20  H    0.159001   0.004226
    21  H    0.141543   0.004210
    22  H    0.147010   0.000112
    23  H    0.126119  -0.004306
    24  H    0.156569  -0.000992
    25  H    0.126581  -0.003790
    26  H    0.123516  -0.002365
    27  H    0.156229  -0.001291
    28  H    0.318933  -0.002679
    29  H    0.214898  -0.000871
 Sum of Mulliken charges =  -1.00000   1.00000

 Dipole moment (field-independent basis, Debye):
    X=             -4.1026    Y=              3.6500    Z=             -0.6222  Tot=              5.5264
 Quadrupole moment (field-independent basis, Debye-Ang):
   XX=           -133.1138   YY=           -156.8074   ZZ=           -126.1760
   XY=              2.9222   XZ=              1.7302   YZ=             -4.8838

  Exact polarizability: 367.025  26.048 274.310   9.669  21.943 115.934
 Approx polarizability: 542.373   6.095 497.081  10.341  40.708 187.341

                      1                      2                      3
                      A                      A                      A
 Frequencies --     26.2600                44.0612                97.3402
 Red. masses --     11.2335                 5.7693                 4.0701
 Frc consts  --      0.0046                 0.0066                 0.0227
 IR Inten    --      2.6917                 2.5501                 0.9254

                      4                      5                      6
                      A                      A                      A
 Frequencies --    129.0626               147.4919               180.4920
 Red. masses --      4.6280                 5.4222                 7.9077
 Frc consts  --      0.0454                 0.0695                 0.1518
 IR Inten    --      0.0958                 0.1172                 3.6469

                      7                      8                      9
                      A                      A                      A
 Frequencies --    183.0298               196.5629               241.3890
 Red. masses --      4.1274                 1.1841                 4.8270
 Frc consts  --      0.0815                 0.0270                 0.1657
 IR Inten    --      0.7212                 2.1326                 0.9390

                     10                     11                     12
                      A                      A                      A
 Frequencies --    276.2492               291.4461               328.7727
 Red. masses --      4.0445                 4.8976                 6.8294
 Frc consts  --      0.1818                 0.2451                 0.4349
 IR Inten    --      5.0938                 2.0708                 1.5458

                     13                     14                     15
                      A                      A                      A
 Frequencies --    342.7722               355.3041               372.0039
 Red. masses --      5.1071                 4.8873                 5.0094
 Frc consts  --      0.3535                 0.3635                 0.4084
 IR Inten    --      9.3657                22.7724                17.9198

                     16                     17                     18
                      A                      A                      A
 Frequencies --    391.9597               409.6016               422.3567
 Red. masses --      3.0086                 3.3105                 5.7722
 Frc consts  --      0.2723                 0.3272                 0.6067
 IR Inten    --     40.5126                37.5318                 0.3807

                     19                     20                     21
                      A                      A                      A
 Frequencies --    439.1924               449.0811               494.9527
 Red. masses --      3.9961                 3.3963                 9.2011
 Frc consts  --      0.4541                 0.4036                 1.3281
 IR Inten    --      9.2750                48.4083                 0.3905

                     22                     23                     24
                      A                      A                      A
 Frequencies --    502.4690               511.9750               581.4580
 Red. masses --      4.8541                 3.9965                 6.0221
 Frc consts  --      0.7221                 0.6172                 1.1996
 IR Inten    --      8.0359                18.5212                19.9449

                     25                     26                     27
                      A                      A                      A
 Frequencies --    585.9025               630.9123               660.2744
 Red. masses --      5.4767                 4.6497                 5.2743
 Frc consts  --      1.1077                 1.0905                 1.3548
 IR Inten    --      6.4742                 1.9801                 3.0301

                     28                     29                     30
                      A                      A                      A
 Frequencies --    673.1884               714.3998               724.7947
 Red. masses --      5.3473                 2.7167                 6.4783
 Frc consts  --      1.4278                 0.8169                 2.0051
 IR Inten    --      3.7144                24.1913                13.9410

                     31                     32                     33
                      A                      A                      A
 Frequencies --    739.9589               776.4623               789.6695
 Red. masses --      3.3551                 1.4799                 2.4538
 Frc consts  --      1.0824                 0.5257                 0.9015
 IR Inten    --      6.8597               125.0760                19.6445

                     34                     35                     36
                      A                      A                      A
 Frequencies --    803.2530               810.6583               835.1831
 Red. masses --      5.1223                 5.4157                 3.9847
 Frc consts  --      1.9472                 2.0969                 1.6376
 IR Inten    --     11.6754                36.4720                14.1814

                     37                     38                     39
                      A                      A                      A
 Frequencies --    860.3567               869.9275               909.4273
 Red. masses --      1.3257                 1.4972                 7.3212
 Frc consts  --      0.5782                 0.6676                 3.5675
 IR Inten    --     13.8799                 0.1080                 9.5163

                     40                     41                     42
                      A                      A                      A
 Frequencies --    982.2305               985.7009               988.2559
 Red. masses --      1.3143                 1.3037                 2.6668
 Frc consts  --      0.7471                 0.7463                 1.5345
 IR Inten    --      1.2702                 1.0482                 2.2998

                     43                     44                     45
                      A                      A                      A
 Frequencies --   1013.5305              1041.5913              1047.3917
 Red. masses --      2.5714                 1.8872                 1.4532
 Frc consts  --      1.5563                 1.2063                 0.9393
 IR Inten    --     55.5123                14.4676                 0.3516

                     46                     47                     48
                      A                      A                      A
 Frequencies --   1059.8058              1112.8501              1147.1568
 Red. masses --      2.9276                 1.9891                 1.3793
 Frc consts  --      1.9374                 1.4514                 1.0694
 IR Inten    --     30.0460                11.0941                18.7882

                     49                     50                     51
                      A                      A                      A
 Frequencies --   1172.3048              1204.5642              1221.3412
 Red. masses --      2.3191                 2.1211                 2.6426
 Frc consts  --      1.8778                 1.8133                 2.3225
 IR Inten    --     15.7981                22.4393                37.8137

                     52                     53                     54
                      A                      A                      A
 Frequencies --   1225.3309              1253.1828              1288.7887
 Red. masses --      3.0320                 2.0135                 3.2333
 Frc consts  --      2.6822                 1.8630                 3.1642
 IR Inten    --     37.1139                50.0895                24.8075

                     55                     56                     57
                      A                      A                      A
 Frequencies --   1318.7763              1352.7880              1371.9800
 Red. masses --      4.0357                 2.9449                 9.6215
 Frc consts  --      4.1353                 3.1752                10.6705
 IR Inten    --      7.9767                 1.0671                 6.7489

                     58                     59                     60
                      A                      A                      A
 Frequencies --   1387.2799              1391.7464              1412.9300
 Red. masses --      3.7007                 2.3356                 1.6662
 Frc consts  --      4.1963                 2.6654                 1.9598
 IR Inten    --    203.1369                17.1209                 2.6888

                     61                     62                     63
                      A                      A                      A
 Frequencies --   1471.3361              1481.4788              1481.7754
 Red. masses --      3.0719                 1.1900                 2.0794
 Frc consts  --      3.9182                 1.5389                 2.6900
 IR Inten    --     97.1493                10.5758                33.3045

                     64                     65                     66
                      A                      A                      A
 Frequencies --   1488.2532              1509.1103              1536.3649
 Red. masses --      1.8584                 2.0481                 4.6920
 Frc consts  --      2.4251                 2.7481                 6.5252
 IR Inten    --     49.8686               168.6351               624.4314

                     67                     68                     69
                      A                      A                      A
 Frequencies --   1560.4898              1591.0010              1614.3025
 Red. masses --      4.8813                 2.8935                 1.9567
 Frc consts  --      7.0034                 4.3154                 3.0044
 IR Inten    --     56.8409                31.9066               120.4240

                     70                     71                     72
                      A                      A                      A
 Frequencies --   1616.1611              1628.8945              2971.7528
 Red. masses --      6.8327                 6.3533                 1.0493
 Frc consts  --     10.5150                 9.9319                 5.4597
 IR Inten    --     11.1097                 6.9250               134.0288

                     73                     74                     75
                      A                      A                      A
 Frequencies --   3012.5810              3084.5847              3134.8981
 Red. masses --      1.0898                 1.0949                 1.0849
 Frc consts  --      5.8272                 6.1376                 6.2818
 IR Inten    --     51.3939                25.5640                18.8629

                     76                     77                     78
                      A                      A                      A
 Frequencies --   3154.1933              3169.5361              3188.0747
 Red. masses --      1.0916                 1.0899                 1.0914
 Frc consts  --      6.3989                 6.4513                 6.5357
 IR Inten    --     57.3244                16.1144                11.1690

                     79                     80                     81
                      A                      A                      A
 Frequencies --   3191.2290              3304.1031              3643.4921
 Red. masses --      1.0922                 1.0662                 1.0836
 Frc consts  --      6.5536                 6.8581                 8.4757
 IR Inten    --     26.0666               168.0847                17.7445

 - Thermochemistry -
 -------------------
 Temperature   298.150 Kelvin.  Pressure   1.00000 Atm.
 Atom     1 has atomic number  6 and mass  12.00000

 Molecular mass:   271.04001 amu.
 Principal axes and moments of inertia in atomic units:
                           1         2         3
     Eigenvalues --  3420.457126123.856869525.27963
           X            0.91795  -0.39605  -0.02281
           Y            0.38959   0.91084  -0.13636
           Z            0.07478   0.11629   0.99040
 This molecule is an asymmetric top.
 Rotational symmetry number  1.
 Warning -- assumption of classical behavior for rotation
           may cause significant error
 Rotational temperatures (Kelvin)      0.02532     0.01414     0.00909
 Rotational constants (GHZ):           0.52763     0.29471     0.18947
 Zero-point vibrational energy     553947.5 (Joules/Mol)
                                  132.39663 (Kcal/Mol)
 Warning -- explicit consideration of  25 degrees of freedom as
           vibrations may cause significant error
 Vibrational temperatures:     37.78    63.39   140.05   185.69   212.21
          (Kelvin)            259.69   263.34   282.81   347.30   397.46
                              419.33   473.03   493.17   511.20   535.23
                              563.94   589.33   607.68   631.90   646.13
                              712.13   722.94   736.62   836.59   842.98
                              907.74   949.99   968.57  1027.86  1042.82
                             1064.64  1117.16  1136.16  1155.70  1166.36
                             1201.64  1237.86  1251.63  1308.46  1413.21
                             1418.20  1421.88  1458.24  1498.62  1506.96
                             1524.82  1601.14  1650.50  1686.69  1733.10
                             1757.24  1762.98  1803.05  1854.28  1897.42
                             1946.36  1973.97  1995.99  2002.41  2032.89
                             2116.92  2131.52  2131.94  2141.26  2171.27
                             2210.49  2245.20  2289.10  2322.62  2325.30
                             2343.62  4275.69  4334.43  4438.03  4510.42
                             4538.18  4560.26  4586.93  4591.47  4753.87
                             5242.17

 Zero-point correction=                           0.210987 (Hartree/Particle)
 Thermal correction to Energy=                    0.226386
 Thermal correction to Enthalpy=                  0.227330
 Thermal correction to Gibbs Free Energy=         0.167336
 Sum of electronic and zero-point Energies=          -1243.128939
 Sum of electronic and thermal Energies=             -1243.113540
 Sum of electronic and thermal Enthalpies=           -1243.112596
 Sum of electronic and thermal Free Energies=        -1243.172590

                     E (Thermal)             CV                S
                      KCal/Mol        Cal/Mol-Kelvin    Cal/Mol-Kelvin
 Total                  142.059             61.234            126.268
 Electronic               0.000              0.000              1.377
 Translational            0.889              2.981             42.690
 Rotational               0.889              2.981             33.656
 Vibrational            140.282             55.272             48.545
 Vibration     1          0.593              1.985              6.094
 Vibration     2          0.595              1.980              5.068
 Vibration     3          0.603              1.951              3.507
 Vibration     4          0.612              1.924              2.960
 Vibration     5          0.617              1.905              2.704
 Vibration     6          0.629              1.866              2.323
 Vibration     7          0.631              1.863              2.297
 Vibration     8          0.636              1.845              2.165
 Vibration     9          0.658              1.777              1.793
 Vibration    10          0.678              1.717              1.557
 Vibration    11          0.687              1.690              1.466
 Vibration    12          0.712              1.618              1.266
 Vibration    13          0.722              1.590              1.199
 Vibration    14          0.731              1.564              1.143
 Vibration    15          0.744              1.530              1.072
 Vibration    16          0.759              1.487              0.993
 Vibration    17          0.774              1.449              0.928
 Vibration    18          0.785              1.422              0.884
 Vibration    19          0.799              1.385              0.829
 Vibration    20          0.808              1.363              0.799
 Vibration    21          0.851              1.261              0.671
 Vibration    22          0.858              1.245              0.652
 Vibration    23          0.867              1.223              0.629
 Vibration    24          0.938              1.071              0.483
 Vibration    25          0.943              1.062              0.475

 Optimization completed.
    -- Stationary point found.
 Normal termination of Gaussian 16 at Wed Dec 27 21:35:48 2023.
