 Q-Chem 5.4, Q-Chem, Inc., Pleasanton, CA (2021)
 Q-Chem 5.4.0 for Intel X86 EM64T Linux

User input:
--------------------------------------------------------------
$molecule
-2 1
Cl                -2.6811650000     -1.7227530000     -0.0124210000
C                 -1.1499090000     -0.7542960000     -0.0049120000
C                 -1.2827100000      0.6269030000     -0.0378820000
C                 -0.1693310000      1.5295360000     -0.0367830000
O                 -0.2963890000      2.8098910000     -0.0675720000
C                  1.0777990000      0.8200000000      0.0021980000
C                  1.1826190000     -0.5828360000      0.0351080000
Cl                 2.7938300000     -1.3575840000      0.0822690000
C                  0.0717300000     -1.5016340000      0.0345840000
O                  0.1704080000     -2.7763900000      0.0643920000
Cl                 2.5538380000      1.8348290000      0.0074000000
H                 -2.2707200000      1.0743350000     -0.0663820000
$end

$rem
BASIS  =  6-311++G(d,p)
GUI  =  2
JOB_TYPE  =  SP
METHOD  =  B3LYP
SCF_CONVERGENCE  = 8
SOLVENT_METHOD = sm12
$end

$smx
solvent dimethylformamide
charges CM5
$end

--------------------------------------------------------------

             Standard Nuclear Orientation (Angstroms)
    I     Atom           X                Y                Z
 ----------------------------------------------------------------
    1      Cl     -2.6811650000    -1.7227530000    -0.0124210000
    2      C      -1.1499090000    -0.7542960000    -0.0049120000
    3      C      -1.2827100000     0.6269030000    -0.0378820000
    4      C      -0.1693310000     1.5295360000    -0.0367830000
    5      O      -0.2963890000     2.8098910000    -0.0675720000
    6      C       1.0777990000     0.8200000000     0.0021980000
    7      C       1.1826190000    -0.5828360000     0.0351080000
    8      Cl      2.7938300000    -1.3575840000     0.0822690000
    9      C       0.0717300000    -1.5016340000     0.0345840000
   10      O       0.1704080000    -2.7763900000     0.0643920000
   11      Cl      2.5538380000     1.8348290000     0.0074000000
   12      H      -2.2707200000     1.0743350000    -0.0663820000
 ----------------------------------------------------------------

   17   -1760.4398607976      8.86e-09  Convergence criterion met
 Total energy in the final basis set =    -1760.7058898849

                    Orbital Energies (a.u.)
 --------------------------------------------------------------

 Alpha MOs
 -- Occupied --
********-101.5280-101.5275 -19.0174 -19.0167 -10.1973 -10.1942 -10.1922
-10.1918 -10.1890 -10.1434  -9.4414  -9.4408  -9.4406  -7.2057  -7.2049
 -7.2049  -7.1969  -7.1963  -7.1961  -7.1959  -7.1957  -7.1951  -0.9416
 -0.9347  -0.8537  -0.8348  -0.8126  -0.7663  -0.6826  -0.6570  -0.5618
 -0.5380  -0.4658  -0.4428  -0.4207  -0.3951  -0.3913  -0.3613  -0.3534
 -0.3487  -0.3399  -0.3284  -0.2994  -0.2978  -0.2896  -0.2873  -0.2737
 -0.2265  -0.2123  -0.1983  -0.1973  -0.1252

          Ground-State Mulliken Net Atomic Charges

     Atom                 Charge (a.u.)
  ----------------------------------------
      1 Cl                    0.626132
      2 C                     1.560309
      3 C                    -1.623265
      4 C                    -2.361904
      5 O                    -0.449152
      6 C                     0.489524
      7 C                     0.878108
      8 Cl                    0.731039
      9 C                    -2.212454
     10 O                    -0.373807
     11 Cl                    0.732916
     12 H                     0.002554
  ----------------------------------------
  Sum of atomic charges =    -2.000000

                    Cartesian Multipole Moments
 -----------------------------------------------------------------
    Charge (ESU x 10^10)
                -9.6064
    Dipole Moment (Debye)
         X      -1.2691      Y       0.4290      Z      -0.0330
       Tot       1.3401
    Quadrupole Moments (Debye-Ang)
        XX    -117.8112     XY      -1.8411     YY    -152.2788
        XZ      -0.4414     YZ       1.2896     ZZ     -92.1652

 Total job time:  122.33s(wall), 841.08s(cpu)
        *  Thank you very much for using Q-Chem.  Have a nice day.  *
