 Gaussian 16, Revision A.03,
 Gaussian 16:  ES64L-G16RevA.03 25-Dec-2016

 --------------------------------------
 #P UB3LYP/6-311++G(d,p) nosym opt freq
 --------------------------------------

 -------
 Radical
 -------
 Symbolic Z-matrix:
 Charge = -1 Multiplicity = 2

 SCF Done:  E(UB3LYP) =  -1615.45633997     A.U. after   19 cycles
 SCF Done:  E(UB3LYP) =  -1615.45633989     A.U. after   10 cycles
 SCF Done:  E(UB3LYP) =  -1615.45633884     A.U. after   10 cycles
 SCF Done:  E(UB3LYP) =  -1615.45634003     A.U. after   10 cycles
 Optimization completed.
    -- Stationary point found.
 Normal termination of Gaussian 16 at Fri Feb  2 17:31:00 2024.

 ----------------------------------------------------------------------
 #P Geom=AllCheck Guess=TCheck SCRF=Check GenChk UB3LYP/6-311++G(d,p) F
 req
 ----------------------------------------------------------------------

 Structure from the checkpoint file:  "018-rad.chk"
 -------
 Radical
 -------
 Charge = -1 Multiplicity = 2

                          Input orientation:
 ---------------------------------------------------------------------
 Center     Atomic      Atomic             Coordinates (Angstroms)
 Number     Number       Type             X           Y           Z
 ---------------------------------------------------------------------
      1          6           0       -1.582534    0.710230    1.472542
      2          6           0       -2.787823    1.169447    0.756890
      3          6           0       -2.724992    1.100505   -0.615843
      4          6           0       -1.581275    0.626610   -1.402168
      5          6           0       -0.371194    0.179574   -0.686941
      6          6           0       -0.437016    0.240934    0.686055
      7          8           0       -1.652356    0.610801   -2.654290
      8          8           0       -1.516731    0.712806    2.725092
      9         17           0        0.888035   -0.253377    1.768054
     10         17           0       -4.054384    1.584169   -1.697323
     11          6           0        0.797606   -0.297289   -1.601362
     12          6           0        1.223128    0.873934   -2.527308
     13          6           0        2.095418   -0.769705   -0.909513
     14          6           0        0.313916   -1.503487   -2.450276
     15          6           0       -3.950870    1.661422    1.670704
     16          6           0       -3.448118    2.854727    2.527273
     17          6           0       -5.237029    2.162865    0.977796
     18          6           0       -4.399582    0.493364    2.589451
     19          1           0        0.390589    1.229592   -3.129512
     20          1           0        2.026628    0.538826   -3.193935
     21          1           0        1.611299    1.704302   -1.928160
     22          1           0        2.565677    0.012839   -0.314610
     23          1           0        2.797029   -1.056842   -1.701375
     24          1           0        1.941190   -1.637934   -0.269552
     25          1           0        0.061324   -2.345320   -1.797107
     26          1           0        1.121670   -1.828555   -3.116886
     27          1           0       -0.555900   -1.245825   -3.049439
     28          1           0       -2.584027    2.579629    3.127078
     29          1           0       -4.251701    3.189792    3.193894
     30          1           0       -3.180136    3.695509    1.878965
     31          1           0       -5.061320    3.024701    0.334279
     32          1           0       -5.930874    2.470382    1.768834
     33          1           0       -5.727011    1.390233    0.385996
     34          1           0       -3.575047    0.120870    3.192084
     35          1           0       -4.799825   -0.327371    1.984971
     36          1           0       -5.199465    0.838744    3.255308
 ---------------------------------------------------------------------

 SCF Done:  E(UB3LYP) =  -1615.45634003     A.U. after    1 cycles

 Alpha  occ. eigenvalues -- -101.41838-101.41837 -18.95411 -18.95410 -10.11100
 Alpha  occ. eigenvalues --  -10.11099 -10.10636 -10.10634 -10.08456 -10.08456
 Alpha  occ. eigenvalues --  -10.07072 -10.07070 -10.04735 -10.04734 -10.04174
 Alpha  occ. eigenvalues --  -10.04173 -10.04168 -10.04167  -9.33355  -9.33355
 Alpha  occ. eigenvalues --   -7.09787  -7.09787  -7.08894  -7.08894  -7.08766
 Alpha  occ. eigenvalues --   -7.08766  -0.88991  -0.88670  -0.74986  -0.74057
 Alpha  occ. eigenvalues --   -0.70427  -0.70080  -0.66838  -0.60771  -0.57295
 Alpha  occ. eigenvalues --   -0.57290  -0.57053  -0.57006  -0.54823  -0.50339
 Alpha  occ. eigenvalues --   -0.44144  -0.44031  -0.41844  -0.38519  -0.35661
 Alpha  occ. eigenvalues --   -0.35304  -0.32998  -0.32767  -0.32226  -0.31815
 Alpha  occ. eigenvalues --   -0.31220  -0.30958  -0.30557  -0.29253  -0.28316
 Alpha  occ. eigenvalues --   -0.28119  -0.27030  -0.26837  -0.26283  -0.25194
 Alpha  occ. eigenvalues --   -0.24983  -0.24927  -0.23736  -0.23699  -0.22657
 Alpha  occ. eigenvalues --   -0.22420  -0.21766  -0.21379  -0.21335  -0.20580
 Alpha  occ. eigenvalues --   -0.17419  -0.17166  -0.15102  -0.12315  -0.12196
 Alpha  occ. eigenvalues --   -0.11447  -0.04026
 Alpha virt. eigenvalues --    0.07973   0.08178   0.09542   0.10117   0.10143
 Alpha virt. eigenvalues --    0.10576   0.10678   0.11129   0.11622   0.12340
 Alpha virt. eigenvalues --    0.12932   0.13006   0.13038   0.13471   0.13758

  Beta  occ. eigenvalues -- -101.41836-101.41835 -18.94726 -18.94725 -10.10976
  Beta  occ. eigenvalues --  -10.10975 -10.10499 -10.10498 -10.08463 -10.08463
  Beta  occ. eigenvalues --  -10.06969 -10.06968 -10.04735 -10.04735 -10.04168
  Beta  occ. eigenvalues --  -10.04167 -10.04162 -10.04161  -9.33353  -9.33353
  Beta  occ. eigenvalues --   -7.09793  -7.09793  -7.08879  -7.08879  -7.08766
  Beta  occ. eigenvalues --   -7.08766  -0.87853  -0.87489  -0.74620  -0.73932
  Beta  occ. eigenvalues --   -0.70369  -0.69983  -0.66523  -0.60517  -0.57271
  Beta  occ. eigenvalues --   -0.57267  -0.57045  -0.57000  -0.53898  -0.50068
  Beta  occ. eigenvalues --   -0.44055  -0.43629  -0.41639  -0.38335  -0.35593
  Beta  occ. eigenvalues --   -0.35145  -0.32844  -0.32720  -0.32193  -0.31660
  Beta  occ. eigenvalues --   -0.30641  -0.30462  -0.30183  -0.28724  -0.28042
  Beta  occ. eigenvalues --   -0.27756  -0.26732  -0.26682  -0.25728  -0.25061
  Beta  occ. eigenvalues --   -0.24639  -0.24128  -0.23658  -0.23553  -0.22534
  Beta  occ. eigenvalues --   -0.22368  -0.21720  -0.21353  -0.20075  -0.19497
  Beta  occ. eigenvalues --   -0.17391  -0.17105  -0.12465  -0.11663  -0.11577
  Beta  occ. eigenvalues --   -0.10837
  Beta virt. eigenvalues --    0.03011   0.07975   0.08179   0.09881   0.10127
  Beta virt. eigenvalues --    0.10169   0.10583   0.10678   0.11623   0.12284
  Beta virt. eigenvalues --    0.12375   0.12941   0.13045   0.13116   0.13477

 Mulliken charges and spin densities:
               1          2
     1  C   -1.028137   0.074734
     2  C    0.402913   0.114962
     3  C   -0.203459   0.060842
     4  C   -1.027913   0.074727
     5  C    0.402842   0.115009
     6  C   -0.203295   0.060864
     7  O   -0.238447   0.252350
     8  O   -0.238430   0.252376
     9  Cl   0.534469   0.004167
    10  Cl   0.534608   0.004165
    11  C    0.734367  -0.030002
    12  C   -0.661551   0.013608
    13  C   -0.621996  -0.004570
    14  C   -0.660639   0.013675
    15  C    0.734560  -0.029989
    16  C   -0.661860   0.013574
    17  C   -0.622214  -0.004569
    18  C   -0.660279   0.013693
    19  H    0.200843  -0.001470
    20  H    0.117112   0.000264
    21  H    0.119745   0.000558
    22  H    0.132235   0.000897
    23  H    0.101517  -0.000322
    24  H    0.131402   0.000886
    25  H    0.120572   0.000610
    26  H    0.117099   0.000267
    27  H    0.201728  -0.001497
    28  H    0.200849  -0.001465
    29  H    0.117092   0.000263
    30  H    0.119784   0.000553
    31  H    0.132191   0.000895
    32  H    0.101536  -0.000322
    33  H    0.131389   0.000887
    34  H    0.201725  -0.001503
    35  H    0.120531   0.000615
    36  H    0.117111   0.000268
 Sum of Mulliken charges =  -1.00000   1.00000

 Dipole moment (field-independent basis, Debye):
    X=              7.6039    Y=             -3.1961    Z=             -0.1698  Tot=              8.2501
 Quadrupole moment (field-independent basis, Debye-Ang):
   XX=           -159.1442   YY=           -135.3699   ZZ=           -165.2026
   XY=             11.3608   XZ=             -3.2318   YZ=              0.2660

  Exact polarizability: 245.051 -36.949 166.669 -14.199   8.602 256.136
 Approx polarizability: 323.033 -34.858 246.501  17.669  -0.814 443.891

 ******    1 imaginary frequencies (negative Signs) ******

                      1                      2                      3
                      A                      A                      A
 Frequencies --     -8.9152                34.4011                38.5049
 Red. masses --      3.9553                 4.9017                 6.1014
 Frc consts  --      0.0002                 0.0034                 0.0053
 IR Inten    --      1.8410                 0.0002                 0.3532

                      4                      5                      6
                      A                      A                      A
 Frequencies --     78.3960               102.7007               176.0321
 Red. masses --      4.3033                 4.2203                 4.2804
 Frc consts  --      0.0156                 0.0262                 0.0781
 IR Inten    --      1.4392                 0.0007                 3.0471

                      7                      8                      9
                      A                      A                      A
 Frequencies --    194.4246               201.0890               212.5295
 Red. masses --      1.5612                 1.1875                 6.6605
 Frc consts  --      0.0348                 0.0283                 0.1773
 IR Inten    --      2.1213                 0.0006                 0.0000

                     10                     11                     12
                      A                      A                      A
 Frequencies --    227.8872               233.4795               237.1168
 Red. masses --      5.0817                 2.7330                 2.1694
 Frc consts  --      0.1555                 0.0878                 0.0719
 IR Inten    --      2.1527                 0.0013                 3.0606

                     13                     14                     15
                      A                      A                      A
 Frequencies --    243.0643               245.9985               271.0812
 Red. masses --      1.1759                 1.1107                 2.7196
 Frc consts  --      0.0409                 0.0396                 0.1177
 IR Inten    --      0.0044                 0.5922                 0.0003

                     16                     17                     18
                      A                      A                      A
 Frequencies --    303.5868               308.1241               321.8201
 Red. masses --      5.4659                 5.1307                 3.4206
 Frc consts  --      0.2968                 0.2870                 0.2087
 IR Inten    --      0.0008                 0.0003                 0.3611

                     19                     20                     21
                      A                      A                      A
 Frequencies --    334.6215               355.4813               363.5982
 Red. masses --      3.1499                 3.7700                 8.1004
 Frc consts  --      0.2078                 0.2807                 0.6310
 IR Inten    --      0.6792                 6.3117                 0.0000

                     22                     23                     24
                      A                      A                      A
 Frequencies --    382.0593               395.1445               397.4674
 Red. masses --      9.0218                 1.1612                 1.0663
 Frc consts  --      0.7759                 0.1068                 0.0993
 IR Inten    --      0.0000                 0.0215                 0.6852

                     25                     26                     27
                      A                      A                      A
 Frequencies --    402.9851               409.5258               413.3919
 Red. masses --      1.9233                11.0592                 2.3036
 Frc consts  --      0.1840                 1.0928                 0.2319
 IR Inten    --      0.0158                 2.1726                 0.2438

                     28                     29                     30
                      A                      A                      A
 Frequencies --    415.3762               444.6568               483.8713
 Red. masses --      2.4726                 2.8763                 8.7472
 Frc consts  --      0.2514                 0.3351                 1.2066
 IR Inten    --      0.0183                 8.6982                 0.0003

                     31                     32                     33
                      A                      A                      A
 Frequencies --    513.8748               543.4784               549.0870
 Red. masses --      5.2268                 3.3851                 2.7015
 Frc consts  --      0.8132                 0.5891                 0.4799
 IR Inten    --      0.0031                19.6252                 0.0005

                     34                     35                     36
                      A                      A                      A
 Frequencies --    616.5403               670.9007               737.1024
 Red. masses --      8.7563                 6.0387                 9.8491
 Frc consts  --      1.9611                 1.6014                 3.1528
 IR Inten    --      0.1411                70.9190                 8.9925

                     37                     38                     39
                      A                      A                      A
 Frequencies --    742.5302               775.4344               777.9504
 Red. masses --      9.1391                10.6179                 4.7249
 Frc consts  --      2.9688                 3.7617                 1.6848
 IR Inten    --      0.0048                 0.0019                 0.0000

                     40                     41                     42
                      A                      A                      A
 Frequencies --    821.9953               859.1610               924.7903
 Red. masses --      3.2405                 4.6273                 1.8933
 Frc consts  --      1.2900                 2.0125                 0.9540
 IR Inten    --     47.0613                 0.0018                 0.0085

                     43                     44                     45
                      A                      A                      A
 Frequencies --    924.9452               926.6610               928.7876
 Red. masses --      1.8921                 4.9035                 1.9624
 Frc consts  --      0.9538                 2.4808                 0.9974
 IR Inten    --      0.4196                85.0116                 0.1937

                     46                     47                     48
                      A                      A                      A
 Frequencies --    929.9715               960.4081               960.6091
 Red. masses --      1.8741                 1.1909                 1.1909
 Frc consts  --      0.9549                 0.6472                 0.6475
 IR Inten    --     15.4138                 0.4468                 0.4756

                     49                     50                     51
                      A                      A                      A
 Frequencies --    971.7847              1035.5519              1050.6062
 Red. masses --      3.7329                 1.6817                 1.3658
 Frc consts  --      2.0770                 1.0625                 0.8882
 IR Inten    --      0.0001                62.4158                 0.0005

                     52                     53                     54
                      A                      A                      A
 Frequencies --   1051.2491              1054.7382              1103.5029
 Red. masses --      1.3688                 1.3870                 8.8306
 Frc consts  --      0.8913                 0.9091                 6.3356
 IR Inten    --      0.0006                 0.0023                66.4416

                     55                     56                     57
                      A                      A                      A
 Frequencies --   1115.6795              1211.3928              1211.9057
 Red. masses --      3.2101                 2.5718                 2.5820
 Frc consts  --      2.3542                 2.2236                 2.2343
 IR Inten    --     78.2692                 0.0365                11.8376

                     58                     59                     60
                      A                      A                      A
 Frequencies --   1214.3456              1222.8119              1248.2620
 Red. masses --      2.6081                 2.4643                 2.5910
 Frc consts  --      2.2660                 2.1710                 2.3787
 IR Inten    --      0.0827                 8.5655                 0.0040

                     61                     62                     63
                      A                      A                      A
 Frequencies --   1264.9097              1328.7415              1375.2035
 Red. masses --      3.1150                 8.3563                 1.2010
 Frc consts  --      2.9365                 8.6925                 1.3382
 IR Inten    --     85.6442                 0.0006                 7.9397

                     64                     65                     66
                      A                      A                      A
 Frequencies --   1375.3375              1384.2194              1386.1136
 Red. masses --      1.2008                 1.2249                 1.2221
 Frc consts  --      1.3383                 1.3828                 1.3834
 IR Inten    --     17.7795                79.2717                 0.1477

                     67                     68                     69
                      A                      A                      A
 Frequencies --   1420.8179              1421.9072              1468.1327
 Red. masses --      1.2321                 1.2242                 8.0025
 Frc consts  --      1.4654                 1.4583                10.1627
 IR Inten    --     46.3237                 0.2409                 8.9855

                     70                     71                     72
                      A                      A                      A
 Frequencies --   1471.3220              1471.4982              1485.0115
 Red. masses --      1.0474                 1.0473                 1.2007
 Frc consts  --      1.3359                 1.3362                 1.5601
 IR Inten    --      0.0589                 0.9084               118.7260

                     73                     74                     75
                      A                      A                      A
 Frequencies --   1487.0725              1496.0877              1496.4165
 Red. masses --      1.0985                 1.0862                 1.1107
 Frc consts  --      1.4313                 1.4325                 1.4654
 IR Inten    --      0.0648                 0.1728                23.6014

                     76                     77                     78
                      A                      A                      A
 Frequencies --   1498.4941              1498.6402              1517.5730
 Red. masses --      1.0470                 1.0470                 1.0509
 Frc consts  --      1.3852                 1.3855                 1.4260
 IR Inten    --      0.2223                 2.1439                 4.6622

                     79                     80                     81
                      A                      A                      A
 Frequencies --   1517.6307              1522.9934              1530.0127
 Red. masses --      1.0509                 2.0467                 3.2425
 Frc consts  --      1.4261                 2.7970                 4.4721
 IR Inten    --      1.5440               243.2559                 0.0097

                     82                     83                     84
                      A                      A                      A
 Frequencies --   1532.9529              1537.9625              1579.4108
 Red. masses --      1.2862                 1.4351                 9.1891
 Frc consts  --      1.7808                 2.0000                13.5056
 IR Inten    --      0.0073                37.7490                 0.0037

                     85                     86                     87
                      A                      A                      A
 Frequencies --   3001.1663              3001.2236              3003.2972
 Red. masses --      1.0425                 1.0426                 1.0450
 Frc consts  --      5.5321                 5.5328                 5.5536
 IR Inten    --      3.0408                95.0297                69.9203

                     88                     89                     90
                      A                      A                      A
 Frequencies --   3003.6159              3016.9430              3017.9074
 Red. masses --      1.0453                 1.0478                 1.0474
 Frc consts  --      5.5561                 5.6191                 5.6205
 IR Inten    --      0.2709               327.8360                 0.7730

                     91                     92                     93
                      A                      A                      A
 Frequencies --   3055.7725              3055.9897              3058.8979
 Red. masses --      1.0985                 1.0985                 1.0973
 Frc consts  --      6.0436                 6.0442                 6.0493
 IR Inten    --      0.4971                61.8989               129.7443

                     94                     95                     96
                      A                      A                      A
 Frequencies --   3059.1263              3088.9295              3089.6450
 Red. masses --      1.0973                 1.0841                 1.0838
 Frc consts  --      6.0500                 6.0946                 6.0957
 IR Inten    --      0.9692                35.0402                38.7643

                     97                     98                     99
                      A                      A                      A
 Frequencies --   3126.9467              3127.8753              3142.7631
 Red. masses --      1.1028                 1.1028                 1.0954
 Frc consts  --      6.3532                 6.3571                 6.3747
 IR Inten    --     27.0447                29.3928                 2.5376

                    100                    101                    102
                      A                      A                      A
 Frequencies --   3143.5864              3144.7148              3145.5511
 Red. masses --      1.0954                 1.0949                 1.0948
 Frc consts  --      6.3776                 6.3797                 6.3826
 IR Inten    --      2.7124                10.6997                 9.2211

 - Thermochemistry -
 -------------------
 Temperature   298.150 Kelvin.  Pressure   1.00000 Atm.
 Atom     1 has atomic number  6 and mass  12.00000

 Molecular mass:   288.06839 amu.
 Principal axes and moments of inertia in atomic units:
                           1         2         3
     Eigenvalues --  3591.328326547.255019327.81729
           X            0.86018   0.35607   0.36512
           Y           -0.34835  -0.11267   0.93057
           Z           -0.37248   0.92764  -0.02712
 This molecule is an asymmetric top.
 Rotational symmetry number  1.
 Warning -- assumption of classical behavior for rotation
           may cause significant error
 Rotational temperatures (Kelvin)      0.02412     0.01323     0.00929
 Rotational constants (GHZ):           0.50253     0.27565     0.19348
    1 imaginary frequencies ignored.
 Zero-point vibrational energy     755064.3 (Joules/Mol)
                                  180.46469 (Kcal/Mol)
 Warning -- explicit consideration of  33 degrees of freedom as
           vibrations may cause significant error
 Vibrational temperatures:     49.50    55.40   112.79   147.76   253.27
          (Kelvin)            279.73   289.32   305.78   327.88   335.92
                              341.16   349.72   353.94   390.03   436.79
                              443.32   463.03   481.45   511.46   523.14
                              549.70   568.52   571.87   579.81   589.22
                              594.78   597.63   639.76   696.18   739.35
                              781.94   790.01   887.06   965.28  1060.53
                             1068.34  1115.68  1119.30  1182.67  1236.14
                             1330.57  1330.79  1333.26  1336.32  1338.02
                             1381.81  1382.10  1398.18  1489.93  1511.59
                             1512.51  1517.53  1587.69  1605.21  1742.92
                             1743.66  1747.17  1759.35  1795.97  1819.92
                             1911.76  1978.61  1978.80  1991.58  1994.31
                             2044.24  2045.81  2112.32  2116.90  2117.16
                             2136.60  2139.57  2152.54  2153.01  2156.00
                             2156.21  2183.45  2183.53  2191.25  2201.35
                             2205.58  2212.78  2272.42  4318.01  4318.09
                             4321.07  4321.53  4340.71  4342.10  4396.58
                             4396.89  4401.07  4401.40  4444.28  4445.31
                             4498.98  4500.31  4521.74  4522.92  4524.54
                             4525.75

 Zero-point correction=                           0.287589 (Hartree/Particle)
 Thermal correction to Energy=                    0.305998
 Thermal correction to Enthalpy=                  0.306942
 Thermal correction to Gibbs Free Energy=         0.241789
 Sum of electronic and zero-point Energies=          -1615.168751
 Sum of electronic and thermal Energies=             -1615.150342
 Sum of electronic and thermal Enthalpies=           -1615.149398
 Sum of electronic and thermal Free Energies=        -1615.214551

                     E (Thermal)             CV                S
                      KCal/Mol        Cal/Mol-Kelvin    Cal/Mol-Kelvin
 Total                  192.016             72.422            137.125
 Electronic               0.000              0.000              1.377
 Translational            0.889              2.981             42.872
 Rotational               0.889              2.981             33.750
 Vibrational            190.239             66.460             59.126
 Vibration     1          0.594              1.983              5.558
 Vibration     2          0.594              1.981              5.335
 Vibration     3          0.600              1.964              3.931
 Vibration     4          0.605              1.947              3.402
 Vibration     5          0.628              1.872              2.370
 Vibration     6          0.635              1.848              2.185
 Vibration     7          0.638              1.838              2.123
 Vibration     8          0.644              1.822              2.022
 Vibration     9          0.651              1.798              1.896
 Vibration    10          0.654              1.790              1.852
 Vibration    11          0.656              1.784              1.824
 Vibration    12          0.659              1.774              1.780
 Vibration    13          0.660              1.769              1.759
 Vibration    14          0.675              1.727              1.589
 Vibration    15          0.695              1.667              1.397
 Vibration    16          0.698              1.658              1.372
 Vibration    17          0.707              1.632              1.301
 Vibration    18          0.716              1.606              1.238
 Vibration    19          0.731              1.564              1.142
 Vibration    20          0.737              1.547              1.107
 Vibration    21          0.752              1.508              1.031
 Vibration    22          0.762              1.481              0.981
 Vibration    23          0.764              1.476              0.972
 Vibration    24          0.768              1.464              0.952
 Vibration    25          0.774              1.450              0.928
 Vibration    26          0.777              1.441              0.915
 Vibration    27          0.779              1.437              0.908
 Vibration    28          0.804              1.373              0.812
 Vibration    29          0.840              1.286              0.700
 Vibration    30          0.869              1.219              0.624
 Vibration    31          0.899              1.154              0.558
 Vibration    32          0.904              1.142              0.546
 Vibration    33          0.976              0.997              0.422

                           ! Non-Optimized Parameters !
 Normal termination of Gaussian 16 at Fri Feb  2 19:28:57 2024.
