 Q-Chem 5.4, Q-Chem, Inc., Pleasanton, CA (2021)
 Q-Chem 5.4.0 for Intel X86 EM64T Linux

User input:
--------------------------------------------------------------
$molecule
0 1
C                 -0.3583850000      3.9977560000      0.1230640000
C                  0.5954820000      3.0526980000      0.1600160000
C                  0.3455230000      1.6321480000     -0.1569700000
C                 -0.9070250000      1.2428720000     -0.5289160000
C                  1.4667910000      0.7109340000     -0.0567210000
C                  1.4588840000     -0.7346850000      0.1052490000
C                  2.8012510000      1.0760460000     -0.1461270000
C                  2.8113030000     -1.1593800000      0.0912390000
C                  0.4629290000     -1.7034410000      0.3142060000
C                  0.8330380000     -3.0321160000      0.4701190000
C                  2.1819350000     -3.4260540000      0.4296490000
C                  3.1918110000     -2.4918090000      0.2470840000
N                  3.5978130000     -0.0304680000     -0.0692510000
H                 -1.1243120000      0.2236990000     -0.8180350000
H                  3.2402520000      2.0491040000     -0.2972580000
H                 -0.5818220000     -1.4290840000      0.3692960000
H                  0.0669250000     -3.7817190000      0.6299080000
H                  2.4374170000     -4.4720900000      0.5515810000
H                  4.2349690000     -2.7870510000      0.2324160000
H                  4.6028410000     -0.0237160000     -0.1312630000
C                 -1.7428630000      3.6637620000     -0.2541040000
C                 -2.0233570000      2.1752960000     -0.6215590000
O                 -2.6301570000      4.4888430000     -0.2828400000
O                 -3.1396870000      1.8438350000     -0.9765710000
H                 -0.1547630000      5.0320090000      0.3771220000
H                  1.5981370000      3.3293100000      0.4653650000
$end

$rem
BASIS  =  6-311++G(d,p)
GUI  =  2
JOB_TYPE  =  SP
METHOD  =  B3LYP
SCF_CONVERGENCE  = 8
SOLVENT_METHOD = sm12
$end

$smx
solvent dimethylformamide
charges CM5
$end

--------------------------------------------------------------

             Standard Nuclear Orientation (Angstroms)
    I     Atom           X                Y                Z
 ----------------------------------------------------------------
    1      C      -0.3583850000     3.9977560000     0.1230640000
    2      C       0.5954820000     3.0526980000     0.1600160000
    3      C       0.3455230000     1.6321480000    -0.1569700000
    4      C      -0.9070250000     1.2428720000    -0.5289160000
    5      C       1.4667910000     0.7109340000    -0.0567210000
    6      C       1.4588840000    -0.7346850000     0.1052490000
    7      C       2.8012510000     1.0760460000    -0.1461270000
    8      C       2.8113030000    -1.1593800000     0.0912390000
    9      C       0.4629290000    -1.7034410000     0.3142060000
   10      C       0.8330380000    -3.0321160000     0.4701190000
   11      C       2.1819350000    -3.4260540000     0.4296490000
   12      C       3.1918110000    -2.4918090000     0.2470840000
   13      N       3.5978130000    -0.0304680000    -0.0692510000
   14      H      -1.1243120000     0.2236990000    -0.8180350000
   15      H       3.2402520000     2.0491040000    -0.2972580000
   16      H      -0.5818220000    -1.4290840000     0.3692960000
   17      H       0.0669250000    -3.7817190000     0.6299080000
   18      H       2.4374170000    -4.4720900000     0.5515810000
   19      H       4.2349690000    -2.7870510000     0.2324160000
   20      H       4.6028410000    -0.0237160000    -0.1312630000
   21      C      -1.7428630000     3.6637620000    -0.2541040000
   22      C      -2.0233570000     2.1752960000    -0.6215590000
   23      O      -2.6301570000     4.4888430000    -0.2828400000
   24      O      -3.1396870000     1.8438350000    -0.9765710000
   25      H      -0.1547630000     5.0320090000     0.3771220000
   26      H       1.5981370000     3.3293100000     0.4653650000
 ----------------------------------------------------------------

   15    -744.2645543884      7.20e-09  Convergence criterion met
 Total energy in the final basis set =     -744.3034932196

                    Orbital Energies (a.u.)
 --------------------------------------------------------------

 Alpha MOs
 -- Occupied --
-19.1367 -19.1219 -14.3800 -10.2748 -10.2654 -10.2332 -10.2265 -10.2233
-10.2151 -10.1982 -10.1978 -10.1926 -10.1886 -10.1858 -10.1833 -10.1831
-10.1792  -1.0730  -1.0447  -1.0055  -0.8731  -0.8585  -0.8108  -0.7672
 -0.7546  -0.7471  -0.7100  -0.6427  -0.6316  -0.6250  -0.6030  -0.5740
 -0.5569  -0.5178  -0.5088  -0.4945  -0.4858  -0.4725  -0.4587  -0.4510
 -0.4471  -0.4440  -0.4421  -0.4385  -0.4196  -0.4149  -0.3904  -0.3875
 -0.3744  -0.3628  -0.3540  -0.3519  -0.3043  -0.3003  -0.2644  -0.2525
 -0.2472  -0.2233

          Ground-State Mulliken Net Atomic Charges

     Atom                 Charge (a.u.)
  ----------------------------------------
      1 C                     0.336588
      2 C                     0.040776
      3 C                     1.566878
      4 C                    -0.838100
      5 C                     0.577831
      6 C                     0.402534
      7 C                     1.574632
      8 C                     0.218747
      9 C                    -1.620084
     10 C                    -0.830341
     11 C                    -0.439476
     12 C                    -0.270418
     13 N                     0.172614
     14 H                     0.161307
     15 H                     0.496287
     16 H                     0.115665
     17 H                     0.220812
     18 H                     0.232872
     19 H                     0.298331
     20 H                     0.524341
     21 C                    -1.430281
     22 C                    -1.410829
     23 O                    -0.337435
     24 O                    -0.392212
     25 H                     0.330672
     26 H                     0.298290
  ----------------------------------------
  Sum of atomic charges =     0.000000

                    Cartesian Multipole Moments
 -----------------------------------------------------------------
    Charge (ESU x 10^10)
                 0.0000
    Dipole Moment (Debye)
         X      13.0035      Y      -3.1280      Z       1.5374
       Tot      13.4625
    Quadrupole Moments (Debye-Ang)
        XX     -90.0997     XY      25.4292     YY    -102.5848
        XZ      -6.8400     YZ       3.3074     ZZ    -103.1747

 Total job time:  608.91s(wall), 3972.05s(cpu)
        *  Thank you very much for using Q-Chem.  Have a nice day.  *
