 Gaussian 16, Revision A.03,
 Gaussian 16:  ES64L-G16RevA.03 25-Dec-2016

 ----------------------------------------------------------------
 #P UB3LYP/6-311++G(d,p) SCRF=(PCM,Solvent=n,n-DiMethylFormamide)
 ----------------------------------------------------------------

 -------
 Reduced
 -------
 Symbolic Z-matrix:
 Charge = -2 Multiplicity = 1

                         Standard orientation:
 ---------------------------------------------------------------------
 Center     Atomic      Atomic             Coordinates (Angstroms)
 Number     Number       Type             X           Y           Z
 ---------------------------------------------------------------------
      1          6           0        3.826140   -1.252792    0.050620
      2          6           0        4.133651   -2.597041    0.076983
      3          6           0        3.085290   -3.558559    0.063032
      4          6           0        2.485883   -0.789457    0.003732
      5          6           0        1.426779   -1.760884   -0.010643
      6          6           0        1.772948   -3.136915    0.023557
      7          6           0        2.222061    0.627149   -0.014856
      8          6           0        0.039632   -1.375907   -0.042228
      9          6           0        0.835645    1.024830   -0.087003
     10          6           0       -0.238043    0.037750   -0.105920
     11          6           0        0.484808    2.434826   -0.093519
     12          6           0       -0.844786    2.817772   -0.020278
     13          6           0       -1.887874    1.858526   -0.042762
     14          6           0       -1.614975    0.504426   -0.141019
     15          8           0        3.216700    1.468172    0.047529
     16          8           0       -0.886586   -2.294216    0.005355
     17          1           0        4.601280   -0.493898    0.064716
     18          1           0        5.171940   -2.922210    0.109082
     19          1           0        3.319580   -4.621311    0.084174
     20          1           0        0.950350   -3.844099    0.017329
     21          1           0       -2.915651    2.205347   -0.026512
     22          1           0       -1.105182    3.870604    0.013767
     23          7           0        1.509893    3.375483   -0.186607
     24          6           0        1.315265    4.731466    0.231527
     25          1           0        2.426361    2.912043   -0.034946
     26          1           0        0.867550    4.825390    1.242251
     27          1           0        0.657757    5.293561   -0.452842
     28          1           0        2.284620    5.241368    0.241489
     29          7           0       -2.631055   -0.440305   -0.298913
     30          6           0       -3.991193   -0.149383    0.047476
     31          6           0       -4.851968   -1.403979   -0.078785
     32          8           0       -6.240437   -1.152730    0.203930
     33          1           0       -2.240733   -1.392072   -0.125162
     34          1           0       -4.414525    0.629125   -0.604538
     35          1           0       -4.096931    0.237999    1.087854
     36          1           0       -4.465569   -2.187878    0.585636
     37          1           0       -4.818312   -1.785274   -1.101077
     38          1           0       -6.287392   -0.755711    1.083431
 ---------------------------------------------------------------------

 SCF Done:  E(UB3LYP) =  -993.138246022     A.U. after   17 cycles

 The electronic state is 1-A.
 Alpha  occ. eigenvalues --  -19.12793 -19.02473 -19.02445 -14.27509 -14.27304
 Alpha  occ. eigenvalues --  -10.21281 -10.18681 -10.17693 -10.17674 -10.17620
 Alpha  occ. eigenvalues --  -10.17329 -10.17207 -10.14929 -10.14884 -10.14560
 Alpha  occ. eigenvalues --  -10.14558 -10.14023 -10.13983 -10.13524 -10.13483
 Alpha  occ. eigenvalues --  -10.12835 -10.12738  -1.02346  -0.94709  -0.94343
 Alpha  occ. eigenvalues --   -0.89636  -0.89002  -0.82587  -0.79907  -0.74942
 Alpha  occ. eigenvalues --   -0.73489  -0.72293  -0.70685  -0.68990  -0.64957
 Alpha  occ. eigenvalues --   -0.63146  -0.62361  -0.59617  -0.58478  -0.54706
 Alpha  occ. eigenvalues --   -0.53468  -0.50969  -0.50366  -0.49196  -0.47609
 Alpha  occ. eigenvalues --   -0.46317  -0.45542  -0.44260  -0.43750  -0.43127
 Alpha  occ. eigenvalues --   -0.42400  -0.41565  -0.40724  -0.39861  -0.39528
 Alpha  occ. eigenvalues --   -0.38631  -0.37925  -0.37758  -0.37286  -0.35882
 Alpha  occ. eigenvalues --   -0.35207  -0.34535  -0.34296  -0.33799  -0.33084
 Alpha  occ. eigenvalues --   -0.32724  -0.31624  -0.30445  -0.30121  -0.28407
 Alpha  occ. eigenvalues --   -0.28027  -0.23140  -0.22926  -0.21983  -0.21186
 Alpha  occ. eigenvalues --   -0.20413  -0.19884  -0.15584  -0.10242
 Alpha virt. eigenvalues --   -0.01701  -0.00375   0.00225   0.00478   0.00575
 Alpha virt. eigenvalues --    0.01610   0.01912   0.02277   0.02579   0.03376
 Alpha virt. eigenvalues --    0.03850   0.03969   0.04394   0.04762   0.05242

  Beta  occ. eigenvalues --  -19.12793 -19.02473 -19.02445 -14.27509 -14.27304
  Beta  occ. eigenvalues --  -10.21281 -10.18681 -10.17693 -10.17674 -10.17620
  Beta  occ. eigenvalues --  -10.17329 -10.17207 -10.14929 -10.14884 -10.14560
  Beta  occ. eigenvalues --  -10.14558 -10.14023 -10.13983 -10.13524 -10.13483
  Beta  occ. eigenvalues --  -10.12835 -10.12738  -1.02346  -0.94709  -0.94343
  Beta  occ. eigenvalues --   -0.89636  -0.89002  -0.82587  -0.79907  -0.74942
  Beta  occ. eigenvalues --   -0.73489  -0.72293  -0.70685  -0.68990  -0.64957
  Beta  occ. eigenvalues --   -0.63146  -0.62361  -0.59617  -0.58478  -0.54706
  Beta  occ. eigenvalues --   -0.53468  -0.50969  -0.50366  -0.49196  -0.47609
  Beta  occ. eigenvalues --   -0.46317  -0.45542  -0.44260  -0.43750  -0.43127
  Beta  occ. eigenvalues --   -0.42400  -0.41565  -0.40724  -0.39861  -0.39528
  Beta  occ. eigenvalues --   -0.38631  -0.37925  -0.37758  -0.37286  -0.35882
  Beta  occ. eigenvalues --   -0.35207  -0.34535  -0.34296  -0.33799  -0.33084
  Beta  occ. eigenvalues --   -0.32724  -0.31624  -0.30445  -0.30121  -0.28407
  Beta  occ. eigenvalues --   -0.28027  -0.23140  -0.22926  -0.21983  -0.21186
  Beta  occ. eigenvalues --   -0.20413  -0.19884  -0.15584  -0.10242
  Beta virt. eigenvalues --   -0.01701  -0.00375   0.00225   0.00478   0.00575
  Beta virt. eigenvalues --    0.01610   0.01912   0.02277   0.02579   0.03376
  Beta virt. eigenvalues --    0.03850   0.03969   0.04394   0.04762   0.05242

 Mulliken charges and spin densities:
               1          2
     1  C   -0.068500   0.000000
     2  C   -0.559549   0.000000
     3  C   -0.521683   0.000000
     4  C    0.215746  -0.000000
     5  C    0.145068   0.000000
     6  C   -0.102889  -0.000000
     7  C   -0.363682  -0.000000
     8  C   -0.430003  -0.000000
     9  C    0.244987  -0.000000
    10  C    0.277098  -0.000000
    11  C   -0.117253   0.000000
    12  C   -0.281724  -0.000000
    13  C   -0.244938  -0.000000
    14  C   -0.253405   0.000000
    15  O   -0.617303   0.000000
    16  O   -0.598830  -0.000000
    17  H    0.146340   0.000000
    18  H    0.156276  -0.000000
    19  H    0.157418   0.000000
    20  H    0.135738   0.000000
    21  H    0.145110  -0.000000
    22  H    0.156666  -0.000000
    23  N   -0.296077  -0.000000
    24  C   -0.396596   0.000000
    25  H    0.383520  -0.000000
    26  H    0.126580  -0.000000
    27  H    0.133741   0.000000
    28  H    0.133672  -0.000000
    29  N   -0.168187  -0.000000
    30  C   -0.156601   0.000000
    31  C   -0.367507   0.000000
    32  O   -0.327331  -0.000000
    33  H    0.441528  -0.000000
    34  H    0.147985   0.000000
    35  H    0.121114   0.000000
    36  H    0.157351   0.000000
    37  H    0.176413  -0.000000
    38  H    0.269705  -0.000000
 Sum of Mulliken charges =  -2.00000  -0.00000

 Dipole moment (field-independent basis, Debye):
    X=             -7.0005    Y=              2.3961    Z=              2.3757  Tot=              7.7712
 Quadrupole moment (field-independent basis, Debye-Ang):
   XX=           -205.9107   YY=           -174.8868   ZZ=           -143.9324
   XY=            -13.5601   XZ=             -8.7597   YZ=              1.1625

 Normal termination of Gaussian 16 at Sun Jan 14 01:36:38 2024.
