 Q-Chem 5.4, Q-Chem, Inc., Pleasanton, CA (2021)
 Q-Chem 5.4.0 for Intel X86 EM64T Linux

User input:
--------------------------------------------------------------
$molecule
0 1
C                  0.3002570000     -0.5360530000     -0.1073290000
C                 -0.2607020000     -1.6897750000     -0.5482890000
C                 -1.7117020000     -1.8690220000     -0.6052010000
O                 -2.2045600000     -2.9138320000     -1.0092670000
C                 -2.5873190000     -0.7371570000     -0.1545200000
C                 -3.9741050000     -0.8727380000     -0.1931380000
C                 -4.7891480000      0.1762580000      0.2252870000
C                 -4.2242770000      1.3680130000      0.6853230000
C                 -2.8418230000      1.5122110000      0.7273500000
C                 -2.0198920000      0.4613790000      0.3078180000
C                 -0.5506630000      0.6184450000      0.3545670000
O                 -0.0060920000      1.6400430000      0.7508020000
H                  0.3486960000     -2.5198110000     -0.8739460000
H                 -4.3920140000     -1.8049340000     -0.5528150000
H                 -5.8672870000      0.0664430000      0.1936890000
H                 -4.8628040000      2.1814240000      1.0100820000
H                 -2.3824230000      2.4271150000      1.0805760000
N                  1.6396430000     -0.2347200000     -0.0114200000
C                  2.7252200000     -1.0578870000     -0.3318110000
N                  3.9377610000     -0.4506970000     -0.1326850000
C                  5.1732680000     -1.1216480000     -0.5117030000
O                  2.6023740000     -2.2029590000     -0.7256260000
H                  1.8012840000      0.6916090000      0.3714350000
H                  3.9695710000      0.5452790000      0.0181570000
H                  5.1001310000     -2.1754250000     -0.2473170000
H                  6.0022190000     -0.6733770000      0.0371840000
H                  5.3715320000     -1.0493310000     -1.5862880000
$end
$rem
MAX_SCF_CYCLES=200
BASIS  =  6-311++G(d,p)
GUI  =  2
JOB_TYPE  =  SP
METHOD  =  B3LYP
SOLVENT_METHOD = PCM
$end
$pcm
theory = CPCM
$end
$solvent
dielectric 37.219
opticaldielectric 1.43
$end

--------------------------------------------------------------

             Standard Nuclear Orientation (Angstroms)
    I     Atom           X                Y                Z
 ----------------------------------------------------------------
    1      C       0.3002570000    -0.5360530000    -0.1073290000
    2      C      -0.2607020000    -1.6897750000    -0.5482890000
    3      C      -1.7117020000    -1.8690220000    -0.6052010000
    4      O      -2.2045600000    -2.9138320000    -1.0092670000
    5      C      -2.5873190000    -0.7371570000    -0.1545200000
    6      C      -3.9741050000    -0.8727380000    -0.1931380000
    7      C      -4.7891480000     0.1762580000     0.2252870000
    8      C      -4.2242770000     1.3680130000     0.6853230000
    9      C      -2.8418230000     1.5122110000     0.7273500000
   10      C      -2.0198920000     0.4613790000     0.3078180000
   11      C      -0.5506630000     0.6184450000     0.3545670000
   12      O      -0.0060920000     1.6400430000     0.7508020000
   13      H       0.3486960000    -2.5198110000    -0.8739460000
   14      H      -4.3920140000    -1.8049340000    -0.5528150000
   15      H      -5.8672870000     0.0664430000     0.1936890000
   16      H      -4.8628040000     2.1814240000     1.0100820000
   17      H      -2.3824230000     2.4271150000     1.0805760000
   18      N       1.6396430000    -0.2347200000    -0.0114200000
   19      C       2.7252200000    -1.0578870000    -0.3318110000
   20      N       3.9377610000    -0.4506970000    -0.1326850000
   21      C       5.1732680000    -1.1216480000    -0.5117030000
   22      O       2.6023740000    -2.2029590000    -0.7256260000
   23      H       1.8012840000     0.6916090000     0.3714350000
   24      H       3.9695710000     0.5452790000     0.0181570000
   25      H       5.1001310000    -2.1754250000    -0.2473170000
   26      H       6.0022190000    -0.6733770000     0.0371840000
   27      H       5.3715320000    -1.0493310000    -1.5862880000
 ----------------------------------------------------------------

    9    -798.7513375730      3.95e-06  Convergence criterion met
 Total energy in the final basis set =     -798.7513375730

                    Orbital Energies (a.u.)
 --------------------------------------------------------------

 Alpha MOs
 -- Occupied --
-19.1482 -19.1260 -19.1082 -14.3707 -14.3460 -10.3204 -10.2966 -10.2779
-10.2594 -10.2101 -10.2080 -10.2005 -10.1998 -10.1983 -10.1963 -10.1961
-10.1912  -1.0855  -1.0756  -1.0595  -0.9677  -0.9297  -0.8908  -0.8293
 -0.7794  -0.7743  -0.7276  -0.6939  -0.6540  -0.6502  -0.6051  -0.5979
 -0.5831  -0.5549  -0.5253  -0.5220  -0.4939  -0.4802  -0.4733  -0.4646
 -0.4623  -0.4568  -0.4515  -0.4472  -0.4394  -0.4287  -0.4232  -0.4172
 -0.3977  -0.3839  -0.3832  -0.3695  -0.3514  -0.3012  -0.2989  -0.2887
 -0.2794  -0.2778  -0.2763  -0.2496

          Ground-State Mulliken Net Atomic Charges

     Atom                 Charge (a.u.)
  ----------------------------------------
      1 C                     0.356082
      2 C                     0.225879
      3 C                    -0.199760
      4 O                    -0.336255
      5 C                     0.695351
      6 C                     0.241247
      7 C                    -0.338194
      8 C                    -0.437909
      9 C                     0.204403
     10 C                    -0.361907
     11 C                    -1.090262
     12 O                    -0.272092
     13 H                     0.272409
     14 H                     0.189312
     15 H                     0.227418
     16 H                     0.223576
     17 H                     0.204818
     18 N                    -0.250595
     19 C                     0.145417
     20 N                    -0.221727
     21 C                    -0.272242
     22 O                    -0.443765
     23 H                     0.393713
     24 H                     0.309742
     25 H                     0.181709
     26 H                     0.167931
     27 H                     0.185699
  ----------------------------------------
  Sum of atomic charges =     0.000001

                    Cartesian Multipole Moments
 -----------------------------------------------------------------
    Charge (ESU x 10^10)
                -0.0000
    Dipole Moment (Debye)
         X       1.8970      Y       7.0632      Z       2.0685
       Tot       7.6004
    Quadrupole Moments (Debye-Ang)
        XX     -58.8893     XY      -3.2303     YY    -119.9984
        XZ      -4.1095     YZ      -6.8608     ZZ    -102.6045

 Total job time:  54.88s(wall), 316.98s(cpu)
        *  Thank you very much for using Q-Chem.  Have a nice day.  *
