 Q-Chem 5.4, Q-Chem, Inc., Pleasanton, CA (2021)
 Q-Chem 5.4.0 for Intel X86 EM64T Linux

User input:
--------------------------------------------------------------
$molecule
0 1
O                  0.1513730000      0.4107150000      2.6392930000
C                  0.0823680000      0.2203870000      1.4159560000
C                 -1.1889700000      0.1136200000      0.7157040000
C                 -2.4256730000      0.2224620000      1.4042460000
C                 -3.6161730000      0.1128820000      0.6877490000
C                 -3.5944760000     -0.1009790000     -0.6876410000
C                 -2.3967600000     -0.2117030000     -1.3882770000
C                 -1.2060460000     -0.1024580000     -0.6745080000
O                 -0.0555400000     -0.2191480000     -1.4145810000
C                  1.1634030000     -0.1257720000     -0.8010440000
C                  2.2891230000     -0.2542360000     -1.6167020000
C                  3.5479670000     -0.1672150000     -1.0427480000
C                  3.6952470000      0.0465200000      0.3357670000
C                  2.5727380000      0.1724480000      1.1346090000
C                  1.2857900000      0.0882390000      0.5783330000
O                 -2.4699220000      0.4287680000      2.7322570000
H                 -4.5545260000      0.1970900000      1.2207290000
H                 -4.5203850000     -0.1861460000     -1.2440920000
O                 -2.4169840000     -0.4217850000     -2.7395030000
H                  2.1587360000     -0.4189670000     -2.6790820000
H                  4.4256240000     -0.2662160000     -1.6711380000
H                  4.6850390000      0.1123920000      0.7708290000
H                  2.6500190000      0.3380550000      2.2021800000
H                 -1.5400780000      0.4772030000      3.0547050000
H                 -1.5090200000     -0.4733140000     -3.0612160000
$end

$rem
BASIS  =  6-311++G(d,p)
GUI  =  2
JOB_TYPE  =  SP
METHOD  =  B3LYP
SCF_CONVERGENCE  = 8
SOLVENT_METHOD = sm12
$end

$smx
solvent dimethylformamide
charges CM5
$end

--------------------------------------------------------------

             Standard Nuclear Orientation (Angstroms)
    I     Atom           X                Y                Z
 ----------------------------------------------------------------
    1      O       0.1513730000     0.4107150000     2.6392930000
    2      C       0.0823680000     0.2203870000     1.4159560000
    3      C      -1.1889700000     0.1136200000     0.7157040000
    4      C      -2.4256730000     0.2224620000     1.4042460000
    5      C      -3.6161730000     0.1128820000     0.6877490000
    6      C      -3.5944760000    -0.1009790000    -0.6876410000
    7      C      -2.3967600000    -0.2117030000    -1.3882770000
    8      C      -1.2060460000    -0.1024580000    -0.6745080000
    9      O      -0.0555400000    -0.2191480000    -1.4145810000
   10      C       1.1634030000    -0.1257720000    -0.8010440000
   11      C       2.2891230000    -0.2542360000    -1.6167020000
   12      C       3.5479670000    -0.1672150000    -1.0427480000
   13      C       3.6952470000     0.0465200000     0.3357670000
   14      C       2.5727380000     0.1724480000     1.1346090000
   15      C       1.2857900000     0.0882390000     0.5783330000
   16      O      -2.4699220000     0.4287680000     2.7322570000
   17      H      -4.5545260000     0.1970900000     1.2207290000
   18      H      -4.5203850000    -0.1861460000    -1.2440920000
   19      O      -2.4169840000    -0.4217850000    -2.7395030000
   20      H       2.1587360000    -0.4189670000    -2.6790820000
   21      H       4.4256240000    -0.2662160000    -1.6711380000
   22      H       4.6850390000     0.1123920000     0.7708290000
   23      H       2.6500190000     0.3380550000     2.2021800000
   24      H      -1.5400780000     0.4772030000     3.0547050000
   25      H      -1.5090200000    -0.4733140000    -3.0612160000
 ----------------------------------------------------------------

   15    -801.3342424272      2.36e-09  Convergence criterion met
 Total energy in the final basis set =     -801.3579490302

                    Orbital Energies (a.u.)
 --------------------------------------------------------------

 Alpha MOs
 -- Occupied --
-19.2174 -19.1676 -19.1560 -19.1278 -10.2843 -10.2729 -10.2711 -10.2597
-10.2513 -10.2090 -10.2071 -10.2001 -10.1996 -10.1978 -10.1963 -10.1900
-10.1876  -1.1386  -1.0824  -1.0772  -1.0529  -0.8891  -0.8784  -0.8085
 -0.7945  -0.7739  -0.7508  -0.6882  -0.6791  -0.6321  -0.6257  -0.5913
 -0.5830  -0.5707  -0.5536  -0.5100  -0.5048  -0.4969  -0.4960  -0.4644
 -0.4603  -0.4526  -0.4386  -0.4361  -0.4291  -0.4271  -0.4177  -0.4009
 -0.3924  -0.3852  -0.3792  -0.3751  -0.3654  -0.3276  -0.2856  -0.2853
 -0.2807  -0.2641  -0.2214

          Ground-State Mulliken Net Atomic Charges

     Atom                 Charge (a.u.)
  ----------------------------------------
      1 O                    -0.383192
      2 C                    -0.743063
      3 C                     0.518525
      4 C                    -0.928314
      5 C                     0.089354
      6 C                     0.400887
      7 C                    -0.869644
      8 C                    -0.404415
      9 O                    -0.046080
     10 C                    -1.178434
     11 C                     0.418919
     12 C                     0.409362
     13 C                     0.321569
     14 C                     0.438191
     15 C                     0.304236
     16 O                    -0.329687
     17 H                     0.237869
     18 H                     0.290926
     19 O                    -0.247805
     20 H                     0.284763
     21 H                     0.336787
     22 H                     0.279222
     23 H                     0.210702
     24 H                     0.286451
     25 H                     0.302870
  ----------------------------------------
  Sum of atomic charges =     0.000000

                    Cartesian Multipole Moments
 -----------------------------------------------------------------
    Charge (ESU x 10^10)
                 0.0000
    Dipole Moment (Debye)
         X       3.8733      Y      -0.6204      Z      -3.9479
       Tot       5.5653
    Quadrupole Moments (Debye-Ang)
        XX     -83.0879     XY      -0.2869     YY    -100.7923
        XZ      -1.6902     YZ      -0.3919     ZZ    -103.2508

 Total job time:  485.67s(wall), 3574.97s(cpu)
        *  Thank you very much for using Q-Chem.  Have a nice day.  *
