 Gaussian 16, Revision A.03,
 Gaussian 16:  ES64L-G16RevA.03 25-Dec-2016

 --------------------------------------
 #P UB3LYP/6-311++G(d,p) nosym opt freq
 --------------------------------------

 --------
 Oxidized
 --------
 Symbolic Z-matrix:
 Charge =  0 Multiplicity = 1

 SCF Done:  E(UB3LYP) =  -801.335515525     A.U. after   16 cycles
 SCF Done:  E(UB3LYP) =  -801.335515537     A.U. after    8 cycles
 Optimization completed.
    -- Stationary point found.
 Normal termination of Gaussian 16 at Tue Jan  9 20:38:09 2024.

 ----------------------------------------------------------------------
 #P Geom=AllCheck Guess=TCheck SCRF=Check GenChk UB3LYP/6-311++G(d,p) F
 req
 ----------------------------------------------------------------------

 Structure from the checkpoint file:  "336.chk"
 --------
 Oxidized
 --------
 Charge =  0 Multiplicity = 1

                          Input orientation:
 ---------------------------------------------------------------------
 Center     Atomic      Atomic             Coordinates (Angstroms)
 Number     Number       Type             X           Y           Z
 ---------------------------------------------------------------------
      1          8           0        0.151373    0.410715    2.639293
      2          6           0        0.082368    0.220387    1.415956
      3          6           0       -1.188970    0.113620    0.715704
      4          6           0       -2.425673    0.222462    1.404246
      5          6           0       -3.616173    0.112882    0.687749
      6          6           0       -3.594476   -0.100979   -0.687641
      7          6           0       -2.396760   -0.211703   -1.388277
      8          6           0       -1.206046   -0.102458   -0.674508
      9          8           0       -0.055540   -0.219148   -1.414581
     10          6           0        1.163403   -0.125772   -0.801044
     11          6           0        2.289123   -0.254236   -1.616702
     12          6           0        3.547967   -0.167215   -1.042748
     13          6           0        3.695247    0.046520    0.335767
     14          6           0        2.572738    0.172448    1.134609
     15          6           0        1.285790    0.088239    0.578333
     16          8           0       -2.469922    0.428768    2.732257
     17          1           0       -4.554526    0.197090    1.220729
     18          1           0       -4.520385   -0.186146   -1.244092
     19          8           0       -2.416984   -0.421785   -2.739503
     20          1           0        2.158736   -0.418967   -2.679082
     21          1           0        4.425624   -0.266216   -1.671138
     22          1           0        4.685039    0.112392    0.770829
     23          1           0        2.650019    0.338055    2.202180
     24          1           0       -1.540078    0.477203    3.054705
     25          1           0       -1.509020   -0.473314   -3.061216
 ---------------------------------------------------------------------

 SCF Done:  E(UB3LYP) =  -801.335515537     A.U. after    2 cycles

 Alpha  occ. eigenvalues --  -19.22018 -19.16810 -19.15030 -19.12630 -10.28349
 Alpha  occ. eigenvalues --  -10.27938 -10.27071 -10.25725 -10.25069 -10.21209
 Alpha  occ. eigenvalues --  -10.21143 -10.20747 -10.20689 -10.20560 -10.20028
 Alpha  occ. eigenvalues --  -10.19951 -10.18626  -1.14151  -1.07808  -1.07779
 Alpha  occ. eigenvalues --   -1.05011  -0.89557  -0.87892  -0.81125  -0.79974
 Alpha  occ. eigenvalues --   -0.77852  -0.75221  -0.69091  -0.68335  -0.63256
 Alpha  occ. eigenvalues --   -0.63081  -0.59400  -0.58735  -0.57186  -0.55122
 Alpha  occ. eigenvalues --   -0.51702  -0.50945  -0.49963  -0.49929  -0.46702
 Alpha  occ. eigenvalues --   -0.46589  -0.45774  -0.43725  -0.43627  -0.42844
 Alpha  occ. eigenvalues --   -0.42792  -0.42113  -0.40138  -0.39838  -0.38664
 Alpha  occ. eigenvalues --   -0.38087  -0.38074  -0.36916  -0.32584  -0.28977
 Alpha  occ. eigenvalues --   -0.28621  -0.28286  -0.26708  -0.22031
 Alpha virt. eigenvalues --   -0.09099  -0.04640  -0.03165  -0.01825  -0.00770
 Alpha virt. eigenvalues --   -0.00002   0.00426   0.00921   0.01746   0.02828
 Alpha virt. eigenvalues --    0.03322   0.03538   0.03951   0.04018   0.05798

  Beta  occ. eigenvalues --  -19.22018 -19.16810 -19.15030 -19.12630 -10.28349
  Beta  occ. eigenvalues --  -10.27938 -10.27071 -10.25725 -10.25069 -10.21209
  Beta  occ. eigenvalues --  -10.21143 -10.20747 -10.20689 -10.20560 -10.20028
  Beta  occ. eigenvalues --  -10.19951 -10.18626  -1.14151  -1.07808  -1.07779
  Beta  occ. eigenvalues --   -1.05011  -0.89557  -0.87892  -0.81125  -0.79974
  Beta  occ. eigenvalues --   -0.77852  -0.75221  -0.69091  -0.68335  -0.63256
  Beta  occ. eigenvalues --   -0.63081  -0.59400  -0.58735  -0.57186  -0.55122
  Beta  occ. eigenvalues --   -0.51702  -0.50945  -0.49963  -0.49929  -0.46702
  Beta  occ. eigenvalues --   -0.46589  -0.45774  -0.43725  -0.43627  -0.42844
  Beta  occ. eigenvalues --   -0.42792  -0.42113  -0.40138  -0.39838  -0.38664
  Beta  occ. eigenvalues --   -0.38087  -0.38074  -0.36916  -0.32584  -0.28977
  Beta  occ. eigenvalues --   -0.28621  -0.28286  -0.26708  -0.22031
  Beta virt. eigenvalues --   -0.09099  -0.04640  -0.03165  -0.01825  -0.00770
  Beta virt. eigenvalues --   -0.00002   0.00426   0.00921   0.01746   0.02828
  Beta virt. eigenvalues --    0.03322   0.03538   0.03951   0.04018   0.05798

 Mulliken charges and spin densities:
               1          2
     1  O   -0.314323   0.000000
     2  C   -0.084727  -0.000000
     3  C    1.343423  -0.000000
     4  C   -0.116365  -0.000000
     5  C    0.057913   0.000000
     6  C    0.080923  -0.000000
     7  C   -1.111941   0.000000
     8  C   -0.496541   0.000000
     9  O   -0.105222  -0.000000
    10  C   -1.303559   0.000000
    11  C   -0.335539   0.000000
    12  C   -0.368906   0.000000
    13  C   -0.209274  -0.000000
    14  C    0.357328   0.000000
    15  C    1.381543  -0.000000
    16  O   -0.272908  -0.000000
    17  H    0.199135   0.000000
    18  H    0.206890  -0.000000
    19  O   -0.241376  -0.000000
    20  H    0.176824   0.000000
    21  H    0.178830  -0.000000
    22  H    0.172237   0.000000
    23  H    0.208388  -0.000000
    24  H    0.318676   0.000000
    25  H    0.278571  -0.000000
 Sum of Mulliken charges =  -0.00000  -0.00000

 Dipole moment (field-independent basis, Debye):
    X=              3.0033    Y=             -0.4782    Z=             -3.0384  Tot=              4.2988
 Quadrupole moment (field-independent basis, Debye-Ang):
   XX=            -86.3744   YY=           -100.6505   ZZ=           -102.8553
   XY=             -0.2622   XZ=             -1.5508   YZ=             -0.3534

  Exact polarizability: 247.499  -1.134  82.712  -5.620  15.758 181.616
 Approx polarizability: 363.582  -1.166 132.680  -5.122  33.225 341.260

                      1                      2                      3
                      A                      A                      A
 Frequencies --     62.1583                90.0976               147.1958
 Red. masses --      6.4262                 5.6246                 7.1402
 Frc consts  --      0.0146                 0.0269                 0.0911
 IR Inten    --      0.9026                 0.0002                 0.2783

                      4                      5                      6
                      A                      A                      A
 Frequencies --    156.2295               188.1704               248.0871
 Red. masses --      6.6357                 5.7995                 5.7633
 Frc consts  --      0.0954                 0.1210                 0.2090
 IR Inten    --      0.0571                 0.3561                 0.1204

                      7                      8                      9
                      A                      A                      A
 Frequencies --    281.8386               296.1224               318.4701
 Red. masses --      8.0270                 6.1381                 1.1581
 Frc consts  --      0.3757                 0.3171                 0.0692
 IR Inten    --      0.0953                 0.5056               100.4803

                     10                     11                     12
                      A                      A                      A
 Frequencies --    336.6005               368.8828               397.9416
 Red. masses --      6.5350                 5.1338                10.1387
 Frc consts  --      0.4362                 0.4116                 0.9460
 IR Inten    --     15.0008                 4.1827                 6.3117

                     13                     14                     15
                      A                      A                      A
 Frequencies --    432.0765               436.9910               475.8806
 Red. masses --      3.5803                 6.7014                10.4979
 Frc consts  --      0.3938                 0.7540                 1.4007
 IR Inten    --      1.7446                 6.9209                 0.3545

                     16                     17                     18
                      A                      A                      A
 Frequencies --    486.8824               519.5860               531.9387
 Red. masses --      4.2996                 5.5129                 3.5498
 Frc consts  --      0.6005                 0.8769                 0.5918
 IR Inten    --      0.1286                19.3669                 4.8520

                     19                     20                     21
                      A                      A                      A
 Frequencies --    547.2752               613.6179               646.8768
 Red. masses --      9.4554                 4.2134                 7.4819
 Frc consts  --      1.6686                 0.9347                 1.8446
 IR Inten    --      2.2366                12.5175                 8.4224

                     22                     23                     24
                      A                      A                      A
 Frequencies --    651.3784               676.1895               682.8859
 Red. masses --      6.3048                 5.6927                 6.7091
 Frc consts  --      1.5761                 1.5336                 1.8434
 IR Inten    --     17.2129                 0.4049                13.2249

                     25                     26                     27
                      A                      A                      A
 Frequencies --    708.2945               759.8769               763.8597
 Red. masses --      4.5880                 7.6378                 1.7484
 Frc consts  --      1.3561                 2.5984                 0.6011
 IR Inten    --      3.2033                15.2360                 0.7242

                     28                     29                     30
                      A                      A                      A
 Frequencies --    771.9028               792.7320               840.5046
 Red. masses --      1.2155                 2.2064                 1.4977
 Frc consts  --      0.4267                 0.8169                 0.6234
 IR Inten    --    184.0529                 2.4504                19.4653

                     31                     32                     33
                      A                      A                      A
 Frequencies --    860.1812               877.2796               914.7475
 Red. masses --      7.1633                 1.4466                 7.1392
 Frc consts  --      3.1228                 0.6560                 3.5197
 IR Inten    --      0.5360                 1.0011                43.0259

                     34                     35                     36
                      A                      A                      A
 Frequencies --    953.0319               980.5619              1002.7618
 Red. masses --      1.3118                 1.3527                 1.3072
 Frc consts  --      0.7020                 0.7663                 0.7745
 IR Inten    --      0.4083                 1.4469                 0.1342

                     37                     38                     39
                      A                      A                      A
 Frequencies --   1015.0254              1043.9167              1070.9875
 Red. masses --      5.7700                 2.4963                 2.0824
 Frc consts  --      3.5025                 1.6028                 1.4073
 IR Inten    --     66.0261                 2.8685                24.5344

                     40                     41                     42
                      A                      A                      A
 Frequencies --   1129.6763              1172.0312              1182.4191
 Red. masses --      1.9220                 1.2920                 1.4594
 Frc consts  --      1.4451                 1.0456                 1.2022
 IR Inten    --     31.1154                 9.0139                 6.5873

                     43                     44                     45
                      A                      A                      A
 Frequencies --   1190.9896              1226.5456              1250.3901
 Red. masses --      1.7661                 3.0224                 2.4370
 Frc consts  --      1.4759                 2.6790                 2.2449
 IR Inten    --     73.1560               189.9945                59.8918

                     46                     47                     48
                      A                      A                      A
 Frequencies --   1255.0645              1295.5506              1330.8168
 Red. masses --      2.2136                 2.1189                 3.9741
 Frc consts  --      2.0544                 2.0954                 4.1469
 IR Inten    --    163.7542               146.1701                26.0205

                     49                     50                     51
                      A                      A                      A
 Frequencies --   1343.1240              1358.5473              1400.3295
 Red. masses --      2.6020                 8.5148                 3.8963
 Frc consts  --      2.7656                 9.2592                 4.5016
 IR Inten    --     54.3281                19.6694                39.9423

                     52                     53                     54
                      A                      A                      A
 Frequencies --   1405.9370              1486.2325              1495.4923
 Red. masses --      2.4448                 3.4360                 2.7717
 Frc consts  --      2.8473                 4.4717                 3.6523
 IR Inten    --    250.5775                66.0113               178.7383

                     55                     56                     57
                      A                      A                      A
 Frequencies --   1506.1177              1520.3999              1610.8145
 Red. masses --      3.1333                 2.3933                 6.6143
 Frc consts  --      4.1876                 3.2595                10.1117
 IR Inten    --    143.0645               196.5090                16.7590

                     58                     59                     60
                      A                      A                      A
 Frequencies --   1634.2924              1642.6395              1665.8200
 Red. masses --      5.0898                 6.5025                 8.9630
 Frc consts  --      8.0097                10.3375                14.6541
 IR Inten    --     75.0864               280.9622               125.9924

                     61                     62                     63
                      A                      A                      A
 Frequencies --   1687.0071              3174.9456              3188.2090
 Red. masses --      6.6495                 1.0870                 1.0889
 Frc consts  --     11.1499                 6.4556                 6.5212
 IR Inten    --    186.8202                 2.7455                 3.2572

                     64                     65                     66
                      A                      A                      A
 Frequencies --   3188.5125              3198.2713              3203.6135
 Red. masses --      1.0901                 1.0940                 1.0963
 Frc consts  --      6.5294                 6.5934                 6.6290
 IR Inten    --      6.2615                 2.2149                 8.4695

                     67                     68                     69
                      A                      A                      A
 Frequencies --   3204.5255              3389.2765              3812.2997
 Red. masses --      1.0942                 1.0682                 1.0657
 Frc consts  --      6.6204                 7.2294                 9.1252
 IR Inten    --      1.3559               288.8913                68.9641

 - Thermochemistry -
 -------------------
 Temperature   298.150 Kelvin.  Pressure   1.00000 Atm.
 Atom     1 has atomic number  8 and mass  15.99491

 Molecular mass:   228.04226 amu.
 Principal axes and moments of inertia in atomic units:
                           1         2         3
     Eigenvalues --  2134.983174461.804106596.78721
           X            0.99861   0.05262   0.00154
           Y           -0.00960   0.15329   0.98813
           Z           -0.05176   0.98678  -0.15358
 This molecule is an asymmetric top.
 Rotational symmetry number  1.
 Warning -- assumption of classical behavior for rotation
           may cause significant error
 Rotational temperatures (Kelvin)      0.04057     0.01941     0.01313
 Rotational constants (GHZ):           0.84532     0.40449     0.27358
 Zero-point vibrational energy     479098.0 (Joules/Mol)
                                  114.50717 (Kcal/Mol)
 Warning -- explicit consideration of  20 degrees of freedom as
           vibrations may cause significant error
 Vibrational temperatures:     89.43   129.63   211.78   224.78   270.74
          (Kelvin)            356.94   405.50   426.05   458.21   484.29
                              530.74   572.55   621.66   628.73   684.69
                              700.52   747.57   765.34   787.41   882.86
                              930.71   937.19   972.89   982.52  1019.08
                             1093.29  1099.02  1110.60  1140.56  1209.30
                             1237.61  1262.21  1316.12  1371.20  1410.81
                             1442.75  1460.40  1501.96  1540.91  1625.35
                             1686.29  1701.24  1713.57  1764.73  1799.03
                             1805.76  1864.01  1914.75  1932.46  1954.65
                             2014.76  2022.83  2138.36  2151.68  2166.97
                             2187.52  2317.60  2351.38  2363.39  2396.74
                             2427.23  4568.04  4587.12  4587.56  4601.60
                             4609.29  4610.60  4876.41  5485.05

 Zero-point correction=                           0.182479 (Hartree/Particle)
 Thermal correction to Energy=                    0.194934
 Thermal correction to Enthalpy=                  0.195878
 Thermal correction to Gibbs Free Energy=         0.144015
 Sum of electronic and zero-point Energies=           -801.153037
 Sum of electronic and thermal Energies=              -801.140581
 Sum of electronic and thermal Enthalpies=            -801.139637
 Sum of electronic and thermal Free Energies=         -801.191500

                     E (Thermal)             CV                S
                      KCal/Mol        Cal/Mol-Kelvin    Cal/Mol-Kelvin
 Total                  122.323             51.126            109.155
 Electronic               0.000              0.000              0.000
 Translational            0.889              2.981             42.175
 Rotational               0.889              2.981             32.508
 Vibrational            120.546             45.164             34.472
 Vibration     1          0.597              1.972              4.387
 Vibration     2          0.602              1.956              3.658
 Vibration     3          0.617              1.906              2.708
 Vibration     4          0.620              1.896              2.595
 Vibration     5          0.633              1.856              2.246
 Vibration     6          0.662              1.766              1.744
 Vibration     7          0.681              1.707              1.522
 Vibration     8          0.690              1.681              1.439
 Vibration     9          0.705              1.638              1.318
 Vibration    10          0.717              1.602              1.228
 Vibration    11          0.741              1.536              1.084
 Vibration    12          0.764              1.475              0.970
 Vibration    13          0.793              1.400              0.852
 Vibration    14          0.797              1.390              0.836
 Vibration    15          0.833              1.304              0.721
 Vibration    16          0.843              1.279              0.692
 Vibration    17          0.875              1.207              0.611
 Vibration    18          0.887              1.179              0.583
 Vibration    19          0.902              1.146              0.550
 Vibration    20          0.973              1.003              0.427

 Optimization completed.
    -- Stationary point found.
 Normal termination of Gaussian 16 at Tue Jan  9 21:29:38 2024.
