 Q-Chem 5.4, Q-Chem, Inc., Pleasanton, CA (2021)
 Q-Chem 5.4.0 for Intel X86 EM64T Linux

User input:
--------------------------------------------------------------
$molecule
0 1
C                 -0.3334710000      3.8109950000     -0.2056620000
C                 -1.5447070000      3.2136660000     -0.5407160000
C                 -1.5730370000      1.8839630000     -0.9651690000
C                  0.8501670000      3.0746720000     -0.2966390000
C                  0.8248960000      1.7367040000     -0.7230820000
C                 -0.3934330000      1.1472810000     -1.0559330000
C                  2.1414920000      3.6928150000      0.0548910000
C                  3.3757370000      2.8644950000     -0.0650000000
C                  3.3757440000      1.5688610000     -0.4645200000
C                  2.0909650000      0.9330110000     -0.8244710000
O                  2.2658950000      4.8495400000      0.4417140000
O                  2.0489200000     -0.2313510000     -1.1968930000
H                 -0.2860120000      4.8408060000      0.1266280000
H                 -2.4653510000      3.7814560000     -0.4719450000
H                 -2.5177430000      1.4203970000     -1.2258680000
H                 -0.3975720000      0.1149630000     -1.3830460000
O                  4.5024830000      3.5154230000      0.2675260000
C                  4.6373250000      0.7615990000     -0.5871510000
C                  5.2427180000      0.8101810000     -2.0066570000
C                  6.5217370000     -0.0244340000     -2.1283600000
C                  7.1396830000      0.0127580000     -3.5306460000
C                  8.4196420000     -0.8211490000     -3.6582840000
H                  4.2273360000      4.4145530000      0.5297190000
H                  4.4095260000     -0.2771630000     -0.3353930000
H                  5.3719710000      1.1336310000      0.1315290000
H                  5.4574680000      1.8521200000     -2.2699140000
H                  4.4987990000      0.4474780000     -2.7238000000
H                  6.3009820000     -1.0645090000     -1.8567950000
H                  7.2588900000      0.3330220000     -1.3978040000
H                  7.3575650000      1.0537010000     -3.8025510000
H                  6.4013130000     -0.3439430000     -4.2601780000
H                  8.2015960000     -1.8617240000     -3.3851640000
H                  9.1580610000     -0.4643990000     -2.9285380000
C                  9.0378250000     -0.7862540000     -5.0605870000
H                  9.2563270000      0.2543940000     -5.3335750000
H                  8.2987510000     -1.1420910000     -5.7901570000
C                 10.3166990000     -1.6210640000     -5.1899450000
H                 10.0989440000     -2.6621110000     -4.9174160000
H                 11.0567710000     -1.2658590000     -4.4608130000
C                 10.9355900000     -1.5871550000     -6.5920130000
C                 12.2124170000     -2.4243680000     -6.7116000000
H                 11.1541670000     -0.5473280000     -6.8643680000
H                 10.1966900000     -1.9424510000     -7.3206840000
H                 12.9834870000     -2.0708730000     -6.0196050000
H                 12.6278400000     -2.3788660000     -7.7222540000
H                 12.0187440000     -3.4764840000     -6.4794490000
$end

$rem
BASIS  =  6-311++G(d,p)
GUI  =  2
JOB_TYPE  =  SP
METHOD  =  B3LYP
SCF_CONVERGENCE  = 8
SOLVENT_METHOD = sm12
$end

$smx
solvent dimethylformamide
charges CM5
$end

--------------------------------------------------------------

             Standard Nuclear Orientation (Angstroms)
    I     Atom           X                Y                Z
 ----------------------------------------------------------------
    1      C      -0.3334710000     3.8109950000    -0.2056620000
    2      C      -1.5447070000     3.2136660000    -0.5407160000
    3      C      -1.5730370000     1.8839630000    -0.9651690000
    4      C       0.8501670000     3.0746720000    -0.2966390000
    5      C       0.8248960000     1.7367040000    -0.7230820000
    6      C      -0.3934330000     1.1472810000    -1.0559330000
    7      C       2.1414920000     3.6928150000     0.0548910000
    8      C       3.3757370000     2.8644950000    -0.0650000000
    9      C       3.3757440000     1.5688610000    -0.4645200000
   10      C       2.0909650000     0.9330110000    -0.8244710000
   11      O       2.2658950000     4.8495400000     0.4417140000
   12      O       2.0489200000    -0.2313510000    -1.1968930000
   13      H      -0.2860120000     4.8408060000     0.1266280000
   14      H      -2.4653510000     3.7814560000    -0.4719450000
   15      H      -2.5177430000     1.4203970000    -1.2258680000
   16      H      -0.3975720000     0.1149630000    -1.3830460000
   17      O       4.5024830000     3.5154230000     0.2675260000
   18      C       4.6373250000     0.7615990000    -0.5871510000
   19      C       5.2427180000     0.8101810000    -2.0066570000
   20      C       6.5217370000    -0.0244340000    -2.1283600000
   21      C       7.1396830000     0.0127580000    -3.5306460000
   22      C       8.4196420000    -0.8211490000    -3.6582840000
   23      H       4.2273360000     4.4145530000     0.5297190000
   24      H       4.4095260000    -0.2771630000    -0.3353930000
   25      H       5.3719710000     1.1336310000     0.1315290000
   26      H       5.4574680000     1.8521200000    -2.2699140000
   27      H       4.4987990000     0.4474780000    -2.7238000000
   28      H       6.3009820000    -1.0645090000    -1.8567950000
   29      H       7.2588900000     0.3330220000    -1.3978040000
   30      H       7.3575650000     1.0537010000    -3.8025510000
   31      H       6.4013130000    -0.3439430000    -4.2601780000
   32      H       8.2015960000    -1.8617240000    -3.3851640000
   33      H       9.1580610000    -0.4643990000    -2.9285380000
   34      C       9.0378250000    -0.7862540000    -5.0605870000
   35      H       9.2563270000     0.2543940000    -5.3335750000
   36      H       8.2987510000    -1.1420910000    -5.7901570000
   37      C      10.3166990000    -1.6210640000    -5.1899450000
   38      H      10.0989440000    -2.6621110000    -4.9174160000
   39      H      11.0567710000    -1.2658590000    -4.4608130000
   40      C      10.9355900000    -1.5871550000    -6.5920130000
   41      C      12.2124170000    -2.4243680000    -6.7116000000
   42      H      11.1541670000    -0.5473280000    -6.8643680000
   43      H      10.1966900000    -1.9424510000    -7.3206840000
   44      H      12.9834870000    -2.0708730000    -6.0196050000
   45      H      12.6278400000    -2.3788660000    -7.7222540000
   46      H      12.0187440000    -3.4764840000    -6.4794490000
 ----------------------------------------------------------------

   15    -964.4435781285      8.91e-09  Convergence criterion met
 Total energy in the final basis set =     -964.4675684596

                    Orbital Energies (a.u.)
 --------------------------------------------------------------

 Alpha MOs
 -- Occupied --
-19.1785 -19.1482 -19.1257 -10.2920 -10.2779 -10.2669 -10.2104 -10.2090
-10.2039 -10.2004 -10.1985 -10.1968 -10.1966 -10.1766 -10.1689 -10.1654
-10.1637 -10.1635 -10.1629 -10.1628 -10.1625 -10.1577  -1.1086  -1.0663
 -1.0590  -0.8918  -0.8444  -0.8150  -0.8006  -0.7834  -0.7789  -0.7594
 -0.7278  -0.6988  -0.6770  -0.6553  -0.6401  -0.6140  -0.6043  -0.5881
 -0.5791  -0.5761  -0.5730  -0.5416  -0.5175  -0.4965  -0.4873  -0.4784
 -0.4726  -0.4693  -0.4639  -0.4521  -0.4501  -0.4386  -0.4361  -0.4350
 -0.4241  -0.4146  -0.4142  -0.4088  -0.4038  -0.3995  -0.3839  -0.3781
 -0.3749  -0.3735  -0.3692  -0.3577  -0.3501  -0.3494  -0.3349  -0.3329
 -0.3268  -0.3252  -0.3238  -0.3093  -0.3011  -0.2886  -0.2789  -0.2761
 -0.2569

          Ground-State Mulliken Net Atomic Charges

     Atom                 Charge (a.u.)
  ----------------------------------------
      1 C                     0.355621
      2 C                     0.407664
      3 C                     0.388226
      4 C                     0.579769
      5 C                    -0.660512
      6 C                    -0.036670
      7 C                    -1.111109
      8 C                    -0.534404
      9 C                     1.520317
     10 C                    -1.479405
     11 O                    -0.293570
     12 O                    -0.285819
     13 H                     0.217730
     14 H                     0.329595
     15 H                     0.316434
     16 H                     0.185664
     17 O                    -0.197815
     18 C                    -0.250361
     19 C                    -0.760834
     20 C                    -0.016906
     21 C                     0.122169
     22 C                     0.094824
     23 H                     0.293686
     24 H                     0.182427
     25 H                     0.229026
     26 H                     0.140530
     27 H                     0.115485
     28 H                     0.105300
     29 H                     0.106291
     30 H                     0.109991
     31 H                     0.106961
     32 H                     0.113582
     33 H                     0.114504
     34 C                    -0.173216
     35 H                     0.113335
     36 H                     0.111759
     37 C                    -0.480190
     38 H                     0.104843
     39 H                     0.105675
     40 C                    -0.332670
     41 C                    -0.659745
     42 H                     0.128853
     43 H                     0.128520
     44 H                     0.141636
     45 H                     0.161354
     46 H                     0.141455
  ----------------------------------------
  Sum of atomic charges =     0.000000

                    Cartesian Multipole Moments
 -----------------------------------------------------------------
    Charge (ESU x 10^10)
                -0.0000
    Dipole Moment (Debye)
         X      -2.7607      Y       1.2376      Z      -0.1224
       Tot       3.0279
    Quadrupole Moments (Debye-Ang)
        XX    -130.5394     XY      -4.3865     YY    -137.3276
        XZ       2.1259     YZ      -2.4750     ZZ    -136.7644

 Total job time:  1741.42s(wall), 13521.68s(cpu)
        *  Thank you very much for using Q-Chem.  Have a nice day.  *
