 Q-Chem 5.4, Q-Chem, Inc., Pleasanton, CA (2021)
 Q-Chem 5.4.0 for Intel X86 EM64T Linux

User input:
--------------------------------------------------------------
$molecule
0 1
C                 -4.0780180000      3.6028670000      1.5359660000
C                 -4.5614710000      3.8228500000      0.2495100000
C                 -3.9749370000      3.1828330000     -0.8321990000
C                 -2.8933290000      2.3094360000     -0.6540420000
C                 -2.3876870000      2.0727190000      0.6439070000
C                 -3.0048840000      2.7384120000      1.7272160000
C                 -2.5138020000      2.5279110000      3.1266400000
C                 -1.3801780000      1.6136130000      3.3232200000
C                 -0.7753140000      0.9682850000      2.3110060000
C                 -1.2404850000      1.1547730000      0.8917140000
O                 -3.0334110000      3.0939570000      4.0770900000
O                 -0.6640980000      0.5504620000      0.0038510000
H                 -4.5151560000      4.0877550000      2.3988780000
H                 -4.3516200000      3.3538540000     -1.8367620000
O                 -2.3307970000      1.6916270000     -1.7190830000
C                  0.3805120000      0.0358830000      2.5076100000
H                 -5.3969860000      4.4938890000      0.0865880000
H                 -1.0573410000      1.4905200000      4.3521810000
H                 -2.7918270000      1.9610530000     -2.5217910000
H                  0.6477330000     -0.0383010000      3.5623120000
H                  1.2494600000      0.3768010000      1.9383380000
H                  0.1395760000     -0.9597340000      2.1254660000
$end

$rem
BASIS  =  6-311++G(d,p)
GUI  =  2
JOB_TYPE  =  SP
METHOD  =  B3LYP
SCF_CONVERGENCE  = 8
SOLVENT_METHOD = sm12
$end

$smx
solvent dimethylformamide
charges CM5
$end

--------------------------------------------------------------

             Standard Nuclear Orientation (Angstroms)
    I     Atom           X                Y                Z
 ----------------------------------------------------------------
    1      C      -4.0780180000     3.6028670000     1.5359660000
    2      C      -4.5614710000     3.8228500000     0.2495100000
    3      C      -3.9749370000     3.1828330000    -0.8321990000
    4      C      -2.8933290000     2.3094360000    -0.6540420000
    5      C      -2.3876870000     2.0727190000     0.6439070000
    6      C      -3.0048840000     2.7384120000     1.7272160000
    7      C      -2.5138020000     2.5279110000     3.1266400000
    8      C      -1.3801780000     1.6136130000     3.3232200000
    9      C      -0.7753140000     0.9682850000     2.3110060000
   10      C      -1.2404850000     1.1547730000     0.8917140000
   11      O      -3.0334110000     3.0939570000     4.0770900000
   12      O      -0.6640980000     0.5504620000     0.0038510000
   13      H      -4.5151560000     4.0877550000     2.3988780000
   14      H      -4.3516200000     3.3538540000    -1.8367620000
   15      O      -2.3307970000     1.6916270000    -1.7190830000
   16      C       0.3805120000     0.0358830000     2.5076100000
   17      H      -5.3969860000     4.4938890000     0.0865880000
   18      H      -1.0573410000     1.4905200000     4.3521810000
   19      H      -2.7918270000     1.9610530000    -2.5217910000
   20      H       0.6477330000    -0.0383010000     3.5623120000
   21      H       1.2494600000     0.3768010000     1.9383380000
   22      H       0.1395760000    -0.9597340000     2.1254660000
 ----------------------------------------------------------------

   15    -649.8280204424      2.68e-09  Convergence criterion met
 Total energy in the final basis set =     -649.8518684955

                    Orbital Energies (a.u.)
 --------------------------------------------------------------

 Alpha MOs
 -- Occupied --
-19.1726 -19.1267 -19.1251 -10.2782 -10.2766 -10.2682 -10.2166 -10.2085
-10.2079 -10.2002 -10.1979 -10.1979 -10.1908 -10.1726  -1.0897  -1.0601
 -1.0584  -0.8866  -0.8441  -0.7877  -0.7711  -0.7273  -0.6814  -0.6590
 -0.6236  -0.6031  -0.5535  -0.5422  -0.5056  -0.5035  -0.4773  -0.4666
 -0.4611  -0.4517  -0.4302  -0.4278  -0.4207  -0.4176  -0.4010  -0.3946
 -0.3932  -0.3809  -0.3769  -0.3570  -0.2949  -0.2801  -0.2796  -0.2662
 -0.2517

          Ground-State Mulliken Net Atomic Charges

     Atom                 Charge (a.u.)
  ----------------------------------------
      1 C                    -0.232538
      2 C                     0.652361
      3 C                     1.222878
      4 C                     0.143222
      5 C                    -0.639688
      6 C                     0.052304
      7 C                    -1.848317
      8 C                    -0.033554
      9 C                     0.586662
     10 C                    -1.404694
     11 O                    -0.313239
     12 O                    -0.259534
     13 H                     0.152173
     14 H                     0.337173
     15 O                    -0.194319
     16 C                     0.240211
     17 H                     0.346842
     18 H                     0.236392
     19 H                     0.326214
     20 H                     0.256367
     21 H                     0.186732
     22 H                     0.186352
  ----------------------------------------
  Sum of atomic charges =     0.000000

                    Cartesian Multipole Moments
 -----------------------------------------------------------------
    Charge (ESU x 10^10)
                 0.0000
    Dipole Moment (Debye)
         X      -1.6403      Y       0.9485      Z      -2.9207
       Tot       3.4815
    Quadrupole Moments (Debye-Ang)
        XX     -67.0459     XY      -9.4237     YY     -76.7060
        XZ      21.1560     YZ     -17.9264     ZZ     -84.5065

 Total job time:  312.84s(wall), 2433.58s(cpu)
        *  Thank you very much for using Q-Chem.  Have a nice day.  *
