 Gaussian 16, Revision A.03,
 Gaussian 16:  ES64L-G16RevA.03 25-Dec-2016

 --------------------------------------
 #P UB3LYP/6-311++G(d,p) nosym opt freq
 --------------------------------------

 --------
 Oxidized
 --------
 Symbolic Z-matrix:
 Charge =  0 Multiplicity = 1

 SCF Done:  E(UB3LYP) =  -649.829806324     A.U. after   16 cycles
 SCF Done:  E(UB3LYP) =  -649.829805963     A.U. after   10 cycles
 SCF Done:  E(UB3LYP) =  -649.829806513     A.U. after    9 cycles
 Optimization completed.
    -- Stationary point found.
 Normal termination of Gaussian 16 at Mon Jan  8 21:29:22 2024.

 ----------------------------------------------------------------------
 #P Geom=AllCheck Guess=TCheck SCRF=Check GenChk UB3LYP/6-311++G(d,p) F
 req
 ----------------------------------------------------------------------

 Structure from the checkpoint file:  "308.chk"
 --------
 Oxidized
 --------
 Charge =  0 Multiplicity = 1

                          Input orientation:
 ---------------------------------------------------------------------
 Center     Atomic      Atomic             Coordinates (Angstroms)
 Number     Number       Type             X           Y           Z
 ---------------------------------------------------------------------
      1          6           0       -4.078018    3.602867    1.535966
      2          6           0       -4.561471    3.822850    0.249510
      3          6           0       -3.974937    3.182833   -0.832199
      4          6           0       -2.893329    2.309436   -0.654042
      5          6           0       -2.387687    2.072719    0.643907
      6          6           0       -3.004884    2.738412    1.727216
      7          6           0       -2.513802    2.527911    3.126640
      8          6           0       -1.380178    1.613613    3.323220
      9          6           0       -0.775314    0.968285    2.311006
     10          6           0       -1.240485    1.154773    0.891714
     11          8           0       -3.033411    3.093957    4.077090
     12          8           0       -0.664098    0.550462    0.003851
     13          1           0       -4.515156    4.087755    2.398878
     14          1           0       -4.351620    3.353854   -1.836762
     15          8           0       -2.330797    1.691627   -1.719083
     16          6           0        0.380512    0.035883    2.507610
     17          1           0       -5.396986    4.493889    0.086588
     18          1           0       -1.057341    1.490520    4.352181
     19          1           0       -2.791827    1.961053   -2.521791
     20          1           0        0.647733   -0.038301    3.562312
     21          1           0        1.249460    0.376801    1.938338
     22          1           0        0.139576   -0.959734    2.125466
 ---------------------------------------------------------------------

 SCF Done:  E(UB3LYP) =  -649.829806513     A.U. after    1 cycles

 Alpha  occ. eigenvalues --  -19.17861 -19.12543 -19.12425 -10.27759 -10.27553
 Alpha  occ. eigenvalues --  -10.27294 -10.21870 -10.21143 -10.21095 -10.20807
 Alpha  occ. eigenvalues --  -10.20606 -10.20003 -10.19462 -10.18047  -1.09613
 Alpha  occ. eigenvalues --   -1.05862  -1.05669  -0.89086  -0.84676  -0.79286
 Alpha  occ. eigenvalues --   -0.77551  -0.73187  -0.68497  -0.66407  -0.62847
 Alpha  occ. eigenvalues --   -0.60721  -0.55712  -0.54652  -0.51009  -0.50626
 Alpha  occ. eigenvalues --   -0.48409  -0.46990  -0.46286  -0.45059  -0.43617
 Alpha  occ. eigenvalues --   -0.43179  -0.42314  -0.42007  -0.40626  -0.39943
 Alpha  occ. eigenvalues --   -0.39629  -0.38646  -0.38287  -0.36134  -0.29559
 Alpha  occ. eigenvalues --   -0.28422  -0.27749  -0.26473  -0.25598
 Alpha virt. eigenvalues --   -0.11952  -0.04888  -0.03702  -0.02256  -0.00399
 Alpha virt. eigenvalues --   -0.00060   0.01906   0.02238   0.03035   0.03242
 Alpha virt. eigenvalues --    0.03269   0.04711   0.04990   0.05105   0.06055

  Beta  occ. eigenvalues --  -19.17861 -19.12543 -19.12425 -10.27759 -10.27553
  Beta  occ. eigenvalues --  -10.27294 -10.21870 -10.21143 -10.21095 -10.20807
  Beta  occ. eigenvalues --  -10.20606 -10.20003 -10.19462 -10.18047  -1.09613
  Beta  occ. eigenvalues --   -1.05862  -1.05669  -0.89086  -0.84676  -0.79286
  Beta  occ. eigenvalues --   -0.77551  -0.73187  -0.68497  -0.66407  -0.62847
  Beta  occ. eigenvalues --   -0.60721  -0.55712  -0.54652  -0.51009  -0.50626
  Beta  occ. eigenvalues --   -0.48409  -0.46990  -0.46286  -0.45059  -0.43617
  Beta  occ. eigenvalues --   -0.43179  -0.42314  -0.42007  -0.40626  -0.39943
  Beta  occ. eigenvalues --   -0.39629  -0.38646  -0.38287  -0.36134  -0.29559
  Beta  occ. eigenvalues --   -0.28422  -0.27749  -0.26473  -0.25598
  Beta virt. eigenvalues --   -0.11952  -0.04888  -0.03702  -0.02256  -0.00399
  Beta virt. eigenvalues --   -0.00060   0.01906   0.02238   0.03035   0.03242
  Beta virt. eigenvalues --    0.03269   0.04711   0.04990   0.05105   0.06055

 Mulliken charges and spin densities:
               1          2
     1  C   -0.076473   0.000000
     2  C   -0.235025  -0.000000
     3  C   -0.181557  -0.000000
     4  C    0.243394   0.000000
     5  C   -0.113049  -0.000000
     6  C    0.864020   0.000000
     7  C   -1.027782  -0.000000
     8  C   -0.319261   0.000000
     9  C    0.687973  -0.000000
    10  C   -0.470369   0.000000
    11  O   -0.227624   0.000000
    12  O   -0.195885  -0.000000
    13  H    0.178113  -0.000000
    14  H    0.125697  -0.000000
    15  O   -0.154411   0.000000
    16  C   -0.268128   0.000000
    17  H    0.190288   0.000000
    18  H    0.178465   0.000000
    19  H    0.265394  -0.000000
    20  H    0.160364  -0.000000
    21  H    0.187943   0.000000
    22  H    0.187913   0.000000
 Sum of Mulliken charges =  -0.00000   0.00000

 Dipole moment (field-independent basis, Debye):
    X=             -1.2479    Y=              0.7097    Z=             -2.3107  Tot=              2.7204
 Quadrupole moment (field-independent basis, Debye-Ang):
   XX=            -70.3559   YY=            -78.2224   ZZ=            -83.9756
   XY=             -7.0062   XZ=             18.1118   YZ=            -15.3387

  Exact polarizability: 136.073 -52.757 116.152   7.573   7.377 168.090
 Approx polarizability: 216.334 -89.046 192.581 -20.264  42.605 295.099

                      1                      2                      3
                      A                      A                      A
 Frequencies --     43.2842                69.8275               133.5882
 Red. masses --      6.3446                 6.9006                 1.6204
 Frc consts  --      0.0070                 0.0198                 0.0170
 IR Inten    --     10.9482                 0.3526                 0.0001

                      4                      5                      6
                      A                      A                      A
 Frequencies --    159.2341               194.6261               233.5728
 Red. masses --      2.0456                 3.2984                 4.5966
 Frc consts  --      0.0306                 0.0736                 0.1478
 IR Inten    --      0.1859                 1.1166                 3.8447

                      7                      8                      9
                      A                      A                      A
 Frequencies --    239.5192               312.6195               353.2116
 Red. masses --      4.4476                 4.0250                 2.5010
 Frc consts  --      0.1503                 0.2318                 0.1838
 IR Inten    --      3.0520                 0.0886                15.6831

                     10                     11                     12
                      A                      A                      A
 Frequencies --    368.5912               387.0303               389.1245
 Red. masses --      8.6941                 8.2054                 1.3502
 Frc consts  --      0.6959                 0.7242                 0.1205
 IR Inten    --      4.2602                 1.0119                75.4410

                     13                     14                     15
                      A                      A                      A
 Frequencies --    410.7389               471.7219               472.0649
 Red. masses --      7.8232                 4.1455                 6.5604
 Frc consts  --      0.7776                 0.5435                 0.8614
 IR Inten    --     25.5691                 0.6562                 3.1906

                     16                     17                     18
                      A                      A                      A
 Frequencies --    521.0915               543.0135               574.9086
 Red. masses --      7.4939                 4.4606                 5.9834
 Frc consts  --      1.1989                 0.7749                 1.1652
 IR Inten    --      9.0066                 3.1099                 0.5775

                     19                     20                     21
                      A                      A                      A
 Frequencies --    663.7400               688.3210               706.7547
 Red. masses --      4.1710                 3.4583                 6.2869
 Frc consts  --      1.0826                 0.9654                 1.8502
 IR Inten    --      1.6422                14.1445                12.3943

                     22                     23                     24
                      A                      A                      A
 Frequencies --    715.0619               781.9496               784.0680
 Red. masses --      3.4796                 2.2449                 5.0691
 Frc consts  --      1.0483                 0.8087                 1.8361
 IR Inten    --      4.7052                23.3423                 7.2823

                     25                     26                     27
                      A                      A                      A
 Frequencies --    811.2637               902.8672               905.2459
 Red. masses --      2.7698                 5.6926                 1.3542
 Frc consts  --      1.0741                 2.7341                 0.6538
 IR Inten    --     29.0083                29.9515                10.3733

                     28                     29                     30
                      A                      A                      A
 Frequencies --    919.4019               988.7556               992.9584
 Red. masses --      1.5447                 5.6670                 1.3096
 Frc consts  --      0.7693                 3.2642                 0.7608
 IR Inten    --      9.1230                26.5216                 0.2318

                     31                     32                     33
                      A                      A                      A
 Frequencies --   1032.2306              1057.1133              1090.5905
 Red. masses --      1.6074                 1.5363                 2.3857
 Frc consts  --      1.0091                 1.0115                 1.6718
 IR Inten    --     20.2824                 2.7766                 0.2745

                     34                     35                     36
                      A                      A                      A
 Frequencies --   1153.6369              1168.7768              1191.1215
 Red. masses --      2.2892                 2.2149                 1.1608
 Frc consts  --      1.7950                 1.7827                 0.9703
 IR Inten    --     72.4885                26.5820                 6.2805

                     37                     38                     39
                      A                      A                      A
 Frequencies --   1224.1620              1270.1504              1305.5312
 Red. masses --      1.8021                 2.6464                 2.2956
 Frc consts  --      1.5912                 2.5155                 2.3052
 IR Inten    --      5.6631               228.8362                91.1967

                     40                     41                     42
                      A                      A                      A
 Frequencies --   1317.5975              1363.3139              1371.7252
 Red. masses --      4.6443                 2.7487                 5.1116
 Frc consts  --      4.7505                 3.0100                 5.6668
 IR Inten    --    227.9707                 5.1979                 7.4016

                     43                     44                     45
                      A                      A                      A
 Frequencies --   1414.5816              1465.7514              1477.8888
 Red. masses --      1.2847                 1.0437                 1.0910
 Frc consts  --      1.5146                 1.3211                 1.4039
 IR Inten    --     14.7272                 8.9510                16.8175

                     46                     47                     48
                      A                      A                      A
 Frequencies --   1485.9524              1498.6312              1615.9900
 Red. masses --      2.6713                 2.7977                 5.9899
 Frc consts  --      3.4753                 3.7020                 9.2161
 IR Inten    --     29.1627                11.2777                19.3889

                     49                     50                     51
                      A                      A                      A
 Frequencies --   1627.8042              1682.2351              1716.5896
 Red. masses --      6.3390                 8.3539                10.1756
 Frc consts  --      9.8963                13.9288                17.6661
 IR Inten    --    143.7684                63.4357                32.2145

                     52                     53                     54
                      A                      A                      A
 Frequencies --   1721.3081              3037.6345              3089.0310
 Red. masses --     12.1233                 1.0355                 1.0985
 Frc consts  --     21.1635                 5.6293                 6.1760
 IR Inten    --    398.2263                 9.0702                 5.7534

                     55                     56                     57
                      A                      A                      A
 Frequencies --   3121.7349              3148.9216              3168.9470
 Red. masses --      1.1036                 1.0891                 1.0918
 Frc consts  --      6.3367                 6.3629                 6.4597
 IR Inten    --     13.1052                11.4703                 7.9452

                     58                     59                     60
                      A                      A                      A
 Frequencies --   3182.2087              3209.0613              3811.5776
 Red. masses --      1.0919                 1.0933                 1.0660
 Frc consts  --      6.5146                 6.6333                 9.1247
 IR Inten    --      8.6411                 3.0675                72.2360

 - Thermochemistry -
 -------------------
 Temperature   298.150 Kelvin.  Pressure   1.00000 Atm.
 Atom     1 has atomic number  6 and mass  12.00000

 Molecular mass:   188.04734 amu.
 Principal axes and moments of inertia in atomic units:
                           1         2         3
     Eigenvalues --  1845.838282483.073594317.92342
           X            0.63985  -0.43243   0.63529
           Y           -0.44291   0.46806   0.76469
           Z            0.62803   0.77066  -0.10796
 This molecule is an asymmetric top.
 Rotational symmetry number  1.
 Warning -- assumption of classical behavior for rotation
           may cause significant error
 Rotational temperatures (Kelvin)      0.04692     0.03488     0.02006
 Rotational constants (GHZ):           0.97774     0.72682     0.41797
 Zero-point vibrational energy     429219.8 (Joules/Mol)
                                  102.58601 (Kcal/Mol)
 Warning -- explicit consideration of  18 degrees of freedom as
           vibrations may cause significant error
 Vibrational temperatures:     62.28   100.47   192.20   229.10   280.02
          (Kelvin)            336.06   344.61   449.79   508.19   530.32
                              556.85   559.86   590.96   678.70   679.20
                              749.73   781.28   827.17   954.97   990.34
                             1016.86  1028.81  1125.05  1128.10  1167.23
                             1299.02  1302.45  1322.81  1422.60  1428.65
                             1485.15  1520.95  1569.12  1659.83  1681.61
                             1713.76  1761.30  1827.46  1878.37  1895.73
                             1961.50  1973.61  2035.27  2108.89  2126.35
                             2137.95  2156.20  2325.05  2342.05  2420.36
                             2469.79  2476.58  4370.48  4444.43  4491.48
                             4530.60  4559.41  4578.49  4617.12  5484.01

 Zero-point correction=                           0.163481 (Hartree/Particle)
 Thermal correction to Energy=                    0.175139
 Thermal correction to Enthalpy=                  0.176083
 Thermal correction to Gibbs Free Energy=         0.125585
 Sum of electronic and zero-point Energies=           -649.666325
 Sum of electronic and thermal Energies=              -649.654667
 Sum of electronic and thermal Enthalpies=            -649.653723
 Sum of electronic and thermal Free Energies=         -649.704222

                     E (Thermal)             CV                S
                      KCal/Mol        Cal/Mol-Kelvin    Cal/Mol-Kelvin
 Total                  109.901             45.122            106.284
 Electronic               0.000              0.000              0.000
 Translational            0.889              2.981             41.600
 Rotational               0.889              2.981             31.360
 Vibrational            108.124             39.161             33.323
 Vibration     1          0.595              1.980              5.103
 Vibration     2          0.598              1.969              4.158
 Vibration     3          0.613              1.920              2.894
 Vibration     4          0.621              1.892              2.559
 Vibration     5          0.635              1.847              2.183
 Vibration     6          0.654              1.790              1.851
 Vibration     7          0.657              1.780              1.806
 Vibration     8          0.701              1.650              1.348
 Vibration     9          0.729              1.569              1.152
 Vibration    10          0.741              1.537              1.086
 Vibration    11          0.755              1.498              1.012
 Vibration    12          0.757              1.493              1.003
 Vibration    13          0.775              1.447              0.924
 Vibration    14          0.829              1.313              0.733
 Vibration    15          0.829              1.312              0.732
 Vibration    16          0.876              1.203              0.607
 Vibration    17          0.898              1.155              0.559
 Vibration    18          0.931              1.086              0.495

 Optimization completed.
    -- Stationary point found.
 Normal termination of Gaussian 16 at Mon Jan  8 21:57:45 2024.
