 Gaussian 16, Revision A.03,
 Gaussian 16:  ES64L-G16RevA.03 25-Dec-2016

 ----------------------------------------------------------------------
 #P UB3LYP/6-311++G(d,p) nosym opt freq SCRF=(PCM,Solvent=n,n-DiMethylF
 ormamide)
 ----------------------------------------------------------------------

 -------
 Radical
 -------
 Symbolic Z-matrix:
 Charge = -1 Multiplicity = 2

 SCF Done:  E(UB3LYP) =  -839.600055892     A.U. after   19 cycles
 SCF Done:  E(UB3LYP) =  -839.600297007     A.U. after   14 cycles
 SCF Done:  E(UB3LYP) =  -839.600308128     A.U. after   15 cycles
 SCF Done:  E(UB3LYP) =  -839.600352405     A.U. after   13 cycles
 SCF Done:  E(UB3LYP) =  -839.600355047     A.U. after   12 cycles
 SCF Done:  E(UB3LYP) =  -839.600357118     A.U. after   10 cycles
 SCF Done:  E(UB3LYP) =  -839.600357847     A.U. after   11 cycles
 SCF Done:  E(UB3LYP) =  -839.600357669     A.U. after    9 cycles
 Optimization completed.
    -- Stationary point found.
 Normal termination of Gaussian 16 at Sat Feb 10 22:52:53 2024.

 ----------------------------------------------------------------------
 #P Geom=AllCheck Guess=TCheck SCRF=Check GenChk UB3LYP/6-311++G(d,p) F
 req
 ----------------------------------------------------------------------

 Structure from the checkpoint file:  "186-rad.chk"
 -------
 Radical
 -------
 Charge = -1 Multiplicity = 2

                          Input orientation:
 ---------------------------------------------------------------------
 Center     Atomic      Atomic             Coordinates (Angstroms)
 Number     Number       Type             X           Y           Z
 ---------------------------------------------------------------------
      1          8           0        3.054846   -2.198152    0.221609
      2          6           0        2.774780   -0.875317    0.263236
      3          6           0        3.807078    0.037544    0.428771
      4          6           0        3.522801    1.411807    0.472316
      5          6           0        2.223074    1.873062    0.351288
      6          6           0        1.154355    0.970288    0.182745
      7          6           0       -0.214612    1.497445    0.056282
      8          8           0       -0.406846    2.738539    0.082532
      9          6           0       -1.294725    0.517552   -0.098194
     10          6           0       -2.667986    0.893328   -0.206251
     11          8           0       -3.015529    2.213973   -0.147752
     12          6           0       -3.665077   -0.060824   -0.366598
     13          6           0       -3.349504   -1.425957   -0.422749
     14          6           0       -2.037487   -1.833276   -0.314424
     15          6           0       -1.001557   -0.887572   -0.150238
     16          6           0        0.357878   -1.382704   -0.034009
     17          8           0        0.607338   -2.646103   -0.079159
     18          6           0        1.422118   -0.426224    0.137156
     19          1           0        2.156188   -2.644654    0.095337
     20          1           0        4.823112   -0.328629    0.522346
     21          1           0        4.337061    2.116703    0.602875
     22          1           0        2.002318    2.931718    0.384529
     23          1           0       -3.975871    2.277480   -0.226087
     24          1           0       -4.698168    0.263935   -0.447491
     25          1           0       -4.144054   -2.152862   -0.549555
     26          1           0       -1.771528   -2.881100   -0.351834
 ---------------------------------------------------------------------

 SCF Done:  E(UB3LYP) =  -839.600357669     A.U. after    1 cycles

 Alpha  occ. eigenvalues --  -19.15494 -19.12973 -19.08880 -19.07530 -10.24409
 Alpha  occ. eigenvalues --  -10.23512 -10.23173 -10.23120 -10.18190 -10.18010
 Alpha  occ. eigenvalues --  -10.17715 -10.17606 -10.17561 -10.17462 -10.17277
 Alpha  occ. eigenvalues --  -10.16636 -10.16562 -10.16287  -1.06803  -1.05306
 Alpha  occ. eigenvalues --   -1.00309  -1.00107  -0.86254  -0.84820  -0.78960
 Alpha  occ. eigenvalues --   -0.74999  -0.74621  -0.73903  -0.67236  -0.64644
 Alpha  occ. eigenvalues --   -0.63325  -0.59484  -0.58396  -0.54922  -0.53475
 Alpha  occ. eigenvalues --   -0.50760  -0.49885  -0.48196  -0.46974  -0.46411
 Alpha  occ. eigenvalues --   -0.44424  -0.43737  -0.42405  -0.42071  -0.41691
 Alpha  occ. eigenvalues --   -0.41557  -0.39144  -0.38293  -0.38267  -0.38140
 Alpha  occ. eigenvalues --   -0.37096  -0.36288  -0.35442  -0.34367  -0.33559
 Alpha  occ. eigenvalues --   -0.32897  -0.27288  -0.25687  -0.25317  -0.23821
 Alpha  occ. eigenvalues --   -0.23553  -0.22849  -0.14477
 Alpha virt. eigenvalues --   -0.04823  -0.02569  -0.00353   0.00403   0.00629
 Alpha virt. eigenvalues --    0.00951   0.01974   0.02200   0.03983   0.04316
 Alpha virt. eigenvalues --    0.04439   0.04644   0.04903   0.06195   0.06354

  Beta  occ. eigenvalues --  -19.15490 -19.12942 -19.08382 -19.07008 -10.24430
  Beta  occ. eigenvalues --  -10.23481 -10.23056 -10.22846 -10.18118 -10.17949
  Beta  occ. eigenvalues --  -10.17686 -10.17606 -10.17470 -10.17390 -10.17174
  Beta  occ. eigenvalues --  -10.16591 -10.16509 -10.16282  -1.06790  -1.05163
  Beta  occ. eigenvalues --   -0.99447  -0.99225  -0.85983  -0.84685  -0.78570
  Beta  occ. eigenvalues --   -0.74725  -0.74421  -0.73729  -0.66537  -0.64458
  Beta  occ. eigenvalues --   -0.63116  -0.59384  -0.58226  -0.54689  -0.53324
  Beta  occ. eigenvalues --   -0.50647  -0.49738  -0.47931  -0.46849  -0.46322
  Beta  occ. eigenvalues --   -0.44313  -0.42930  -0.42272  -0.41817  -0.41316
  Beta  occ. eigenvalues --   -0.41229  -0.38960  -0.38168  -0.37399  -0.36985
  Beta  occ. eigenvalues --   -0.36226  -0.36203  -0.35318  -0.34210  -0.32822
  Beta  occ. eigenvalues --   -0.32023  -0.25378  -0.25278  -0.24816  -0.23082
  Beta  occ. eigenvalues --   -0.22956  -0.22178
  Beta virt. eigenvalues --   -0.08843  -0.03671  -0.01542  -0.00340   0.00408
  Beta virt. eigenvalues --    0.00913   0.00962   0.01983   0.02211   0.03989
  Beta virt. eigenvalues --    0.04333   0.04505   0.04661   0.05636   0.06362

 Mulliken charges and spin densities:
               1          2
     1  O   -0.399348   0.010003
     2  C   -0.195759   0.042447
     3  C   -0.171117   0.036884
     4  C   -0.400264   0.056094
     5  C   -0.153620   0.029532
     6  C    0.535839   0.076612
     7  C   -0.374288   0.055292
     8  O   -0.445888   0.196452
     9  C   -0.225754   0.031323
    10  C   -0.087537   0.002094
    11  O   -0.227206   0.000643
    12  C   -0.220801   0.078254
    13  C   -0.395308   0.024847
    14  C   -0.044549   0.067703
    15  C    0.540774   0.008510
    16  C   -0.389637   0.157822
    17  O   -0.494532   0.181768
    18  C    0.450901  -0.031060
    19  H    0.364645  -0.003819
    20  H    0.184201  -0.003414
    21  H    0.188362  -0.004210
    22  H    0.152779  -0.001789
    23  H    0.296381  -0.000419
    24  H    0.156584  -0.006578
    25  H    0.193295  -0.002128
    26  H    0.161845  -0.002864
 Sum of Mulliken charges =  -1.00000   1.00000

 Dipole moment (field-independent basis, Debye):
    X=             -5.1605    Y=             -0.0113    Z=             -0.4732  Tot=              5.1822
 Quadrupole moment (field-independent basis, Debye-Ang):
   XX=            -99.9397   YY=           -141.0354   ZZ=           -110.3176
   XY=             11.0911   XZ=              1.3866   YZ=             -0.1555

  Exact polarizability: 465.202  15.039 356.779  36.429  14.019 134.457
 Approx polarizability: 478.208   7.303 436.077  35.367  16.527 153.883

                      1                      2                      3
                      A                      A                      A
 Frequencies --     53.7089                70.9231               110.5314
 Red. masses --      6.9009                 6.4369                 9.8151
 Frc consts  --      0.0117                 0.0191                 0.0707
 IR Inten    --     15.8913                 0.0015                 1.7198

                      4                      5                      6
                      A                      A                      A
 Frequencies --    166.9474               202.4767               212.1479
 Red. masses --      7.4176                 4.5616                 5.9777
 Frc consts  --      0.1218                 0.1102                 0.1585
 IR Inten    --      0.7268                 0.3029                 9.3624

                      7                      8                      9
                      A                      A                      A
 Frequencies --    241.1287               282.0326               300.4545
 Red. masses --      4.6180                 4.9373                 7.6908
 Frc consts  --      0.1582                 0.2314                 0.4091
 IR Inten    --      1.9885                 4.8755                13.5141

                     10                     11                     12
                      A                      A                      A
 Frequencies --    351.1352               383.2107               407.9906
 Red. masses --      7.8544                 9.1510                 1.1602
 Frc consts  --      0.5706                 0.7918                 0.1138
 IR Inten    --      0.9773                 3.1528               133.9556

                     13                     14                     15
                      A                      A                      A
 Frequencies --    416.8707               431.4530               441.5463
 Red. masses --      6.1683                10.9314                 7.2813
 Frc consts  --      0.6316                 1.1989                 0.8364
 IR Inten    --      0.1860                76.2770                 0.8151

                     16                     17                     18
                      A                      A                      A
 Frequencies --    466.6178               488.7590               514.0460
 Red. masses --      7.4577                 4.0056                 7.5267
 Frc consts  --      0.9567                 0.5638                 1.1718
 IR Inten    --     17.8723                 3.4251                25.2151

                     19                     20                     21
                      A                      A                      A
 Frequencies --    537.1585               540.2566               576.1764
 Red. masses --      6.4117                 5.1760                 4.5359
 Frc consts  --      1.0900                 0.8901                 0.8872
 IR Inten    --      6.6163                 3.4046                 0.3204

                     22                     23                     24
                      A                      A                      A
 Frequencies --    593.5607               612.6868               657.9346
 Red. masses --      7.3867                 5.8601                 4.4594
 Frc consts  --      1.5333                 1.2961                 1.1374
 IR Inten    --     14.4448                35.4215                 0.0592

                     25                     26                     27
                      A                      A                      A
 Frequencies --    704.7832               706.2078               744.9486
 Red. masses --      5.8590                 2.7154                 3.9757
 Frc consts  --      1.7147                 0.7979                 1.2999
 IR Inten    --     17.4581                80.4268                 3.0243

                     28                     29                     30
                      A                      A                      A
 Frequencies --    763.4176               777.4287               791.9983
 Red. masses --      1.8974                 7.1069                 1.8093
 Frc consts  --      0.6515                 2.5307                 0.6687
 IR Inten    --      1.8166                76.8364               163.2986

                     31                     32                     33
                      A                      A                      A
 Frequencies --    811.8671               858.6376               875.2932
 Red. masses --      3.8310                 7.5337                 1.4295
 Frc consts  --      1.4878                 3.2725                 0.6453
 IR Inten    --      1.9890               142.1302                 0.6938

                     34                     35                     36
                      A                      A                      A
 Frequencies --    890.6278               908.8210               918.7125
 Red. masses --      1.4495                 7.3178                 1.0568
 Frc consts  --      0.6774                 3.5611                 0.5256
 IR Inten    --      4.5304                17.5399               119.2688

                     37                     38                     39
                      A                      A                      A
 Frequencies --    977.6192               978.1587               979.7386
 Red. masses --      5.2766                 1.2860                 1.2868
 Frc consts  --      2.9713                 0.7249                 0.7277
 IR Inten    --     18.7394                 0.3157                 0.9150

                     40                     41                     42
                      A                      A                      A
 Frequencies --   1050.9863              1075.1869              1098.3370
 Red. masses --      5.0635                 1.8949                 1.9489
 Frc consts  --      3.2953                 1.2907                 1.3852
 IR Inten    --    307.9545                 8.8256                80.7710

                     43                     44                     45
                      A                      A                      A
 Frequencies --   1161.4341              1176.2990              1188.2567
 Red. masses --      1.4444                 1.1516                 2.5877
 Frc consts  --      1.1480                 0.9388                 2.1527
 IR Inten    --     74.1575                 1.4020                18.2949

                     46                     47                     48
                      A                      A                      A
 Frequencies --   1191.8656              1234.9385              1245.4460
 Red. masses --      1.9481                 2.9625                 2.3073
 Frc consts  --      1.6305                 2.6620                 2.1086
 IR Inten    --     65.3275                47.7408                36.9668

                     49                     50                     51
                      A                      A                      A
 Frequencies --   1272.3051              1285.1144              1314.3407
 Red. masses --      3.2656                 3.2969                 3.8268
 Frc consts  --      3.1146                 3.2080                 3.8949
 IR Inten    --     48.9084                66.5258               761.1725

                     52                     53                     54
                      A                      A                      A
 Frequencies --   1349.9559              1374.4352              1401.1538
 Red. masses --      5.5556                 6.6322                 3.6514
 Frc consts  --      5.9652                 7.3817                 4.2236
 IR Inten    --     16.8944                72.4712              1089.2638

                     55                     56                     57
                      A                      A                      A
 Frequencies --   1421.1754              1454.8723              1486.0749
 Red. masses --      3.0589                 3.0411                 3.1498
 Frc consts  --      3.6401                 3.7925                 4.0985
 IR Inten    --     60.2646               194.1024               276.1251

                     58                     59                     60
                      A                      A                      A
 Frequencies --   1491.0354              1525.0745              1560.1005
 Red. masses --      2.6887                 6.0945                 2.5409
 Frc consts  --      3.5218                 8.3516                 3.6437
 IR Inten    --     20.0800              1138.8801               109.6848

                     61                     62                     63
                      A                      A                      A
 Frequencies --   1566.2450              1605.3683              1622.1736
 Red. masses --      4.1678                 6.8686                 5.3973
 Frc consts  --      6.0239                10.4296                 8.3681
 IR Inten    --    401.0443                30.5076                29.3216

                     64                     65                     66
                      A                      A                      A
 Frequencies --   1651.9139              2867.2371              3151.7369
 Red. masses --      3.0368                 1.0751                 1.0883
 Frc consts  --      4.8825                 5.2076                 6.3696
 IR Inten    --    102.5786              1056.3538                30.6938

                     67                     68                     69
                      A                      A                      A
 Frequencies --   3162.2073              3175.1014              3181.9428
 Red. masses --      1.0872                 1.0915                 1.0928
 Frc consts  --      6.4053                 6.4834                 6.5188
 IR Inten    --     22.9677                22.3743                27.7422

                     70                     71                     72
                      A                      A                      A
 Frequencies --   3201.2631              3204.3947              3790.0254
 Red. masses --      1.0922                 1.0928                 1.0659
 Frc consts  --      6.5948                 6.6113                 9.0205
 IR Inten    --     23.0658                16.5326               112.8705

 - Thermochemistry -
 -------------------
 Temperature   298.150 Kelvin.  Pressure   1.00000 Atm.
 Atom     1 has atomic number  8 and mass  15.99491

 Molecular mass:   240.04226 amu.
 Principal axes and moments of inertia in atomic units:
                           1         2         3
     Eigenvalues --  2300.401295057.771507357.71973
           X            0.98892   0.10551  -0.10444
           Y           -0.11171   0.99220  -0.05531
           Z            0.09779   0.06636   0.99299
 This molecule is an asymmetric top.
 Rotational symmetry number  1.
 Warning -- assumption of classical behavior for rotation
           may cause significant error
 Rotational temperatures (Kelvin)      0.03765     0.01712     0.01177
 Rotational constants (GHZ):           0.78453     0.35683     0.24529
 Zero-point vibrational energy     486198.3 (Joules/Mol)
                                  116.20419 (Kcal/Mol)
 Warning -- explicit consideration of  23 degrees of freedom as
           vibrations may cause significant error
 Vibrational temperatures:     77.28   102.04   159.03   240.20   291.32
          (Kelvin)            305.23   346.93   405.78   432.29   505.21
                              551.35   587.01   599.78   620.76   635.29
                              671.36   703.22   739.60   772.85   777.31
                              828.99   854.00   881.52   946.62  1014.03
                             1016.08  1071.81  1098.39  1118.55  1139.51
                             1168.10  1235.39  1259.35  1281.41  1307.59
                             1321.82  1406.58  1407.35  1409.63  1512.13
                             1546.95  1580.26  1671.04  1692.43  1709.64
                             1714.83  1776.80  1791.92  1830.56  1848.99
                             1891.04  1942.29  1977.51  2015.95  2044.75
                             2093.24  2138.13  2145.27  2194.24  2244.64
                             2253.48  2309.77  2333.95  2376.74  4125.31
                             4534.65  4549.71  4568.26  4578.11  4605.90
                             4610.41  5453.00

 Zero-point correction=                           0.185183 (Hartree/Particle)
 Thermal correction to Energy=                    0.198304
 Thermal correction to Enthalpy=                  0.199248
 Thermal correction to Gibbs Free Energy=         0.145068
 Sum of electronic and zero-point Energies=           -839.415175
 Sum of electronic and thermal Energies=              -839.402054
 Sum of electronic and thermal Enthalpies=            -839.401110
 Sum of electronic and thermal Free Energies=         -839.455289

                     E (Thermal)             CV                S
                      KCal/Mol        Cal/Mol-Kelvin    Cal/Mol-Kelvin
 Total                  124.437             53.961            114.030
 Electronic               0.000              0.000              1.377
 Translational            0.889              2.981             42.328
 Rotational               0.889              2.981             32.815
 Vibrational            122.660             48.000             37.510
 Vibration     1          0.596              1.976              4.676
 Vibration     2          0.598              1.968              4.128
 Vibration     3          0.606              1.941              3.260
 Vibration     4          0.624              1.883              2.470
 Vibration     5          0.639              1.836              2.110
 Vibration     6          0.643              1.822              2.025
 Vibration     7          0.658              1.777              1.795
 Vibration     8          0.681              1.707              1.521
 Vibration     9          0.693              1.673              1.414
 Vibration    10          0.728              1.573              1.161
 Vibration    11          0.752              1.506              1.026
 Vibration    12          0.773              1.453              0.934
 Vibration    13          0.780              1.434              0.903
 Vibration    14          0.792              1.402              0.854
 Vibration    15          0.801              1.380              0.822
 Vibration    16          0.824              1.324              0.747
 Vibration    17          0.845              1.275              0.687
 Vibration    18          0.869              1.219              0.624
 Vibration    19          0.892              1.168              0.571
 Vibration    20          0.895              1.161              0.565
 Vibration    21          0.933              1.083              0.492
 Vibration    22          0.951              1.045              0.461
 Vibration    23          0.972              1.005              0.428

 Optimization completed.
    -- Stationary point found.
 Normal termination of Gaussian 16 at Sat Feb 10 23:53:26 2024.
