 Q-Chem 5.4, Q-Chem, Inc., Pleasanton, CA (2021)
 Q-Chem 5.4.0 for Intel X86 EM64T Linux

User input:
--------------------------------------------------------------
$molecule
-2 1
C                 -1.2589170000      1.8428960000     -0.8742170000
C                 -2.5236280000      1.1893750000     -0.8061160000
C                 -2.8530040000      0.1179500000      0.0414790000
C                 -1.8634210000     -0.4113190000      0.9463240000
C                 -0.5987170000      0.2422230000      0.8782460000
C                 -0.2693290000      1.3136170000      0.0306200000
O                 -1.0389250000      2.8407450000     -1.7001790000
O                 -2.0833980000     -1.4091930000      1.7722600000
C                  1.1369240000      1.9473780000      0.0406510000
C                  1.0195450000      3.4497720000      0.4006900000
C                  2.1013170000      1.2940300000      1.0492330000
C                  1.7665490000      1.8204740000     -1.3693190000
C                 -4.2592800000     -0.5157620000      0.0315000000
C                 -5.2236670000      0.1375670000     -0.9771000000
C                 -4.8888810000     -0.3887830000      1.4414760000
C                 -4.1419510000     -2.0181710000     -0.3284820000
H                 -3.2645030000      1.5940010000     -1.4913140000
H                  0.1421330000     -0.1623540000      1.5634980000
H                  0.3167550000      3.9180250000     -0.2936650000
H                  1.9997700000      3.9517820000      0.3378550000
H                  0.6422630000      3.5621260000      1.4241840000
H                  1.7277990000      1.3744620000      2.0751490000
H                  3.0787150000      1.7954980000      1.0006550000
H                  2.2524920000      0.2314730000      0.8333260000
H                  2.7409430000      2.3352810000     -1.4178150000
H                  1.9248740000      0.7638000000     -1.6160610000
H                  1.0777710000      2.2587930000     -2.0964840000
H                 -4.8503060000      0.0568540000     -2.0030510000
H                 -5.3745910000      1.2001990000     -0.7613830000
H                 -6.2011580000     -0.3636990000     -0.9283010000
H                 -5.0470700000      0.6679070000      1.6882210000
H                 -4.2001570000     -0.8271990000      2.1686380000
H                 -5.8633440000     -0.9034650000      1.4899780000
H                 -3.7647930000     -2.1305720000     -1.3520190000
H                 -5.1221670000     -2.5201730000     -0.2655000000
H                 -3.4390730000     -2.4863900000      0.3658030000
$end
$rem
MAX_SCF_CYCLES=200
BASIS  =  6-311++G(d,p)
GUI  =  2
JOB_TYPE  =  SP
METHOD  =  B3LYP
SOLVENT_METHOD = PCM
$end
$pcm
theory = CPCM
$end
$solvent
dielectric 37.219
opticaldielectric 1.43
$end

--------------------------------------------------------------

             Standard Nuclear Orientation (Angstroms)
    I     Atom           X                Y                Z
 ----------------------------------------------------------------
    1      C      -1.2589170000     1.8428960000    -0.8742170000
    2      C      -2.5236280000     1.1893750000    -0.8061160000
    3      C      -2.8530040000     0.1179500000     0.0414790000
    4      C      -1.8634210000    -0.4113190000     0.9463240000
    5      C      -0.5987170000     0.2422230000     0.8782460000
    6      C      -0.2693290000     1.3136170000     0.0306200000
    7      O      -1.0389250000     2.8407450000    -1.7001790000
    8      O      -2.0833980000    -1.4091930000     1.7722600000
    9      C       1.1369240000     1.9473780000     0.0406510000
   10      C       1.0195450000     3.4497720000     0.4006900000
   11      C       2.1013170000     1.2940300000     1.0492330000
   12      C       1.7665490000     1.8204740000    -1.3693190000
   13      C      -4.2592800000    -0.5157620000     0.0315000000
   14      C      -5.2236670000     0.1375670000    -0.9771000000
   15      C      -4.8888810000    -0.3887830000     1.4414760000
   16      C      -4.1419510000    -2.0181710000    -0.3284820000
   17      H      -3.2645030000     1.5940010000    -1.4913140000
   18      H       0.1421330000    -0.1623540000     1.5634980000
   19      H       0.3167550000     3.9180250000    -0.2936650000
   20      H       1.9997700000     3.9517820000     0.3378550000
   21      H       0.6422630000     3.5621260000     1.4241840000
   22      H       1.7277990000     1.3744620000     2.0751490000
   23      H       3.0787150000     1.7954980000     1.0006550000
   24      H       2.2524920000     0.2314730000     0.8333260000
   25      H       2.7409430000     2.3352810000    -1.4178150000
   26      H       1.9248740000     0.7638000000    -1.6160610000
   27      H       1.0777710000     2.2587930000    -2.0964840000
   28      H      -4.8503060000     0.0568540000    -2.0030510000
   29      H      -5.3745910000     1.2001990000    -0.7613830000
   30      H      -6.2011580000    -0.3636990000    -0.9283010000
   31      H      -5.0470700000     0.6679070000     1.6882210000
   32      H      -4.2001570000    -0.8271990000     2.1686380000
   33      H      -5.8633440000    -0.9034650000     1.4899780000
   34      H      -3.7647930000    -2.1305720000    -1.3520190000
   35      H      -5.1221670000    -2.5201730000    -0.2655000000
   36      H      -3.4390730000    -2.4863900000     0.3658030000
 ----------------------------------------------------------------

    9    -696.4088980145      5.07e-06  Convergence criterion met
 Total energy in the final basis set =     -696.4088980145

                    Orbital Energies (a.u.)
 --------------------------------------------------------------

 Alpha MOs
 -- Occupied --
-19.0057 -19.0057 -10.1581 -10.1581 -10.1578 -10.1578 -10.1365 -10.1365
-10.1293 -10.1293 -10.1292 -10.1292 -10.1221 -10.1221 -10.1110 -10.1110
 -0.9159  -0.9123  -0.7984  -0.7925  -0.7495  -0.6792  -0.6627  -0.6625
 -0.6573  -0.6573  -0.6345  -0.5749  -0.5300  -0.5161  -0.4800  -0.4400
 -0.4353  -0.4302  -0.4133  -0.4124  -0.4096  -0.3897  -0.3890  -0.3775
 -0.3722  -0.3715  -0.3612  -0.3479  -0.3450  -0.3439  -0.3429  -0.3274
 -0.3111  -0.3069  -0.3061  -0.3021  -0.2988  -0.2949  -0.2913  -0.2871
 -0.2134  -0.1983  -0.1849  -0.1821  -0.1122

          Ground-State Mulliken Net Atomic Charges

     Atom                 Charge (a.u.)
  ----------------------------------------
      1 C                    -0.901769
      2 C                    -0.432300
      3 C                     1.001608
      4 C                    -0.900804
      5 C                    -0.431379
      6 C                     1.000098
      7 O                    -0.727562
      8 O                    -0.727590
      9 C                     0.586424
     10 C                    -0.687964
     11 C                    -0.565515
     12 C                    -0.686216
     13 C                     0.584995
     14 C                    -0.564447
     15 C                    -0.686633
     16 C                    -0.687705
     17 H                     0.135166
     18 H                     0.135129
     19 H                     0.169216
     20 H                     0.135480
     21 H                     0.122469
     22 H                     0.129570
     23 H                     0.164186
     24 H                     0.130287
     25 H                     0.135367
     26 H                     0.121773
     27 H                     0.169865
     28 H                     0.129559
     29 H                     0.130267
     30 H                     0.164241
     31 H                     0.121788
     32 H                     0.169894
     33 H                     0.135361
     34 H                     0.122437
     35 H                     0.135492
     36 H                     0.169211
  ----------------------------------------
  Sum of atomic charges =    -2.000000

                    Cartesian Multipole Moments
 -----------------------------------------------------------------
    Charge (ESU x 10^10)
                -9.6064
    Dipole Moment (Debye)
         X      14.9972      Y      -6.8760      Z      -0.3462
       Tot      16.5019
    Quadrupole Moments (Debye-Ang)
        XX    -145.7671     XY      -0.2138     YY    -155.3310
        XZ       7.1046     YZ      28.6206     ZZ    -137.8610

 Total job time:  68.78s(wall), 495.22s(cpu)
        *  Thank you very much for using Q-Chem.  Have a nice day.  *
