 Gaussian 16, Revision A.03,
 Gaussian 16:  ES64L-G16RevA.03 25-Dec-2016

 --------------------------------------
 #P UB3LYP/6-311++G(d,p) nosym opt freq
 --------------------------------------

 -------
 Reduced
 -------
 Symbolic Z-matrix:
 Charge = -2 Multiplicity = 1

 SCF Done:  E(UB3LYP) =  -801.220673601     A.U. after   56 cycles
 SCF Done:  E(UB3LYP) =  -801.250704652     A.U. after   38 cycles
 SCF Done:  E(UB3LYP) =  -801.261089325     A.U. after   40 cycles
 SCF Done:  E(UB3LYP) =  -801.264188946     A.U. after   38 cycles
 SCF Done:  E(UB3LYP) =  -801.264898204     A.U. after   36 cycles
 SCF Done:  E(UB3LYP) =  -801.265194698     A.U. after   35 cycles
 SCF Done:  E(UB3LYP) =  -801.265271891     A.U. after   33 cycles
 SCF Done:  E(UB3LYP) =  -801.265208037     A.U. after   33 cycles
 SCF Done:  E(UB3LYP) =  -801.265336220     A.U. after   31 cycles
 SCF Done:  E(UB3LYP) =  -801.265357088     A.U. after   32 cycles
 SCF Done:  E(UB3LYP) =  -801.265362635     A.U. after   28 cycles
 SCF Done:  E(UB3LYP) =  -801.265364906     A.U. after   36 cycles
 SCF Done:  E(UB3LYP) =  -801.265366263     A.U. after   27 cycles
 Optimization completed.
    -- Stationary point found.
 Normal termination of Gaussian 16 at Sat Jan  6 03:38:26 2024.

 ----------------------------------------------------------------------
 #P Geom=AllCheck Guess=TCheck SCRF=Check GenChk UB3LYP/6-311++G(d,p) F
 req
 ----------------------------------------------------------------------

 Structure from the checkpoint file:  "336-an.chk"
 -------
 Reduced
 -------
 Charge = -2 Multiplicity = 1

                          Input orientation:
 ---------------------------------------------------------------------
 Center     Atomic      Atomic             Coordinates (Angstroms)
 Number     Number       Type             X           Y           Z
 ---------------------------------------------------------------------
      1          8           0        0.106916    0.541132    2.677750
      2          6           0        0.073164    0.346709    1.385445
      3          6           0       -1.182982    0.187905    0.700916
      4          6           0       -2.433227    0.208027    1.394078
      5          6           0       -3.623545    0.043895    0.695635
      6          6           0       -3.632441   -0.181918   -0.693912
      7          6           0       -2.414924   -0.234578   -1.381229
      8          6           0       -1.228397   -0.041874   -0.688230
      9          8           0       -0.070808   -0.026098   -1.452425
     10          6           0        1.166497   -0.053745   -0.810413
     11          6           0        2.275596   -0.250907   -1.607215
     12          6           0        3.571777   -0.212572   -1.038026
     13          6           0        3.692123   -0.027669    0.340133
     14          6           0        2.568146    0.133734    1.147645
     15          6           0        1.254673    0.167980    0.592067
     16          8           0       -2.426288    0.417582    2.742298
     17          1           0       -4.558483    0.099100    1.245486
     18          1           0       -4.561057   -0.298324   -1.241508
     19          8           0       -2.393994   -0.438629   -2.755750
     20          1           0        2.137237   -0.392704   -2.675281
     21          1           0        4.448639   -0.329110   -1.668724
     22          1           0        4.683569   -0.010837    0.790910
     23          1           0        2.654919    0.260293    2.220301
     24          1           0       -1.431520    0.504812    2.966234
     25          1           0       -1.462715   -0.419362   -3.014364
 ---------------------------------------------------------------------

 SCF Done:  E(UB3LYP) =  -801.265366263     A.U. after    5 cycles

 Alpha  occ. eigenvalues --  -18.95360 -18.93831 -18.89166 -18.83092 -10.01214
 Alpha  occ. eigenvalues --  -10.00808 -10.00488  -9.99746  -9.97741  -9.94859
 Alpha  occ. eigenvalues --   -9.94852  -9.94603  -9.94537  -9.94492  -9.94359
 Alpha  occ. eigenvalues --   -9.93946  -9.93390  -0.87108  -0.83772  -0.80748
 Alpha  occ. eigenvalues --   -0.73669  -0.62848  -0.61825  -0.54740  -0.53654
 Alpha  occ. eigenvalues --   -0.51302  -0.49763  -0.43080  -0.42041  -0.37702
 Alpha  occ. eigenvalues --   -0.36654  -0.33094  -0.32928  -0.31371  -0.29403
 Alpha  occ. eigenvalues --   -0.25629  -0.25092  -0.24150  -0.23542  -0.20884
 Alpha  occ. eigenvalues --   -0.20061  -0.19499  -0.18330  -0.18135  -0.17420
 Alpha  occ. eigenvalues --   -0.16939  -0.16595  -0.15136  -0.13467  -0.13245
 Alpha  occ. eigenvalues --   -0.12593  -0.10984  -0.10528  -0.07951  -0.03292
 Alpha  occ. eigenvalues --   -0.01918  -0.00946  -0.00828   0.02220   0.13176
 Alpha virt. eigenvalues --    0.14805   0.15098   0.16118   0.16981   0.17503
 Alpha virt. eigenvalues --    0.19532   0.20048   0.20203   0.21804   0.22001
 Alpha virt. eigenvalues --    0.23411   0.23626   0.24444   0.25289   0.25601

  Beta  occ. eigenvalues --  -18.95360 -18.93831 -18.89166 -18.83092 -10.01214
  Beta  occ. eigenvalues --  -10.00808 -10.00488  -9.99746  -9.97741  -9.94859
  Beta  occ. eigenvalues --   -9.94852  -9.94603  -9.94537  -9.94492  -9.94359
  Beta  occ. eigenvalues --   -9.93946  -9.93390  -0.87108  -0.83772  -0.80748
  Beta  occ. eigenvalues --   -0.73669  -0.62848  -0.61825  -0.54740  -0.53654
  Beta  occ. eigenvalues --   -0.51302  -0.49763  -0.43080  -0.42041  -0.37702
  Beta  occ. eigenvalues --   -0.36654  -0.33094  -0.32928  -0.31371  -0.29403
  Beta  occ. eigenvalues --   -0.25629  -0.25092  -0.24150  -0.23542  -0.20884
  Beta  occ. eigenvalues --   -0.20061  -0.19499  -0.18330  -0.18135  -0.17420
  Beta  occ. eigenvalues --   -0.16939  -0.16595  -0.15136  -0.13467  -0.13245
  Beta  occ. eigenvalues --   -0.12593  -0.10984  -0.10528  -0.07951  -0.03292
  Beta  occ. eigenvalues --   -0.01918  -0.00946  -0.00828   0.02220   0.13176
  Beta virt. eigenvalues --    0.14805   0.15098   0.16118   0.16981   0.17503
  Beta virt. eigenvalues --    0.19532   0.20048   0.20203   0.21804   0.22001
  Beta virt. eigenvalues --    0.23411   0.23626   0.24444   0.25289   0.25601

 Mulliken charges and spin densities:
               1          2
     1  O   -0.514393  -0.000000
     2  C   -0.142901  -0.000000
     3  C    1.475269  -0.000000
     4  C   -0.204198   0.000000
     5  C    0.523065  -0.000001
     6  C    0.782531  -0.000001
     7  C   -1.247141   0.000001
     8  C   -0.677488  -0.000000
     9  O   -0.190136  -0.000000
    10  C   -1.056472   0.000000
    11  C   -1.246165  -0.000001
    12  C    1.476457   0.000001
    13  C    1.100888   0.000001
    14  C   -0.392895  -0.000000
    15  C    1.672444   0.000000
    16  O   -0.408981   0.000000
    17  H   -0.033473   0.000000
    18  H   -0.620267   0.000001
    19  O   -0.321708   0.000000
    20  H   -0.376277  -0.000000
    21  H   -1.666449  -0.000001
    22  H   -0.489458  -0.000000
    23  H    0.135573   0.000000
    24  H    0.331416   0.000000
    25  H    0.090757   0.000000
 Sum of Mulliken charges =  -2.00000   0.00000

 Dipole moment (field-independent basis, Debye):
    X=             -3.9311    Y=             -0.5735    Z=              0.6699  Tot=              4.0288
 Quadrupole moment (field-independent basis, Debye-Ang):
   XX=           -251.2928   YY=           -123.1529   ZZ=           -167.4806
   XY=              1.6372   XZ=             14.9874   YZ=             -5.9745

  Exact polarizability:6690.920 -75.082 217.345 185.442 203.6961958.572
 Approx polarizability:9594.547-239.012 291.843-905.215 294.5032328.340

                      1                      2                      3
                      A                      A                      A
 Frequencies --     58.8109                89.0024               149.6074
 Red. masses --      6.8748                 5.8211                 7.6331
 Frc consts  --      0.0140                 0.0272                 0.1007
 IR Inten    --     11.3957                 0.7620                19.5025

                      4                      5                      6
                      A                      A                      A
 Frequencies --    151.7733               188.4118               248.7614
 Red. masses --      6.7540                 5.8602                 7.4228
 Frc consts  --      0.0917                 0.1226                 0.2706
 IR Inten    --     18.8423                 5.7609                92.7256

                      7                      8                      9
                      A                      A                      A
 Frequencies --    256.9514               294.1201               336.2169
 Red. masses --      5.9564                 6.1343                 6.4896
 Frc consts  --      0.2317                 0.3127                 0.4322
 IR Inten    --     54.2965                 4.1525                95.1565

                     10                     11                     12
                      A                      A                      A
 Frequencies --    359.1486               375.8428               387.2527
 Red. masses --      7.3041                 2.7513                 6.3007
 Frc consts  --      0.5551                 0.2290                 0.5567
 IR Inten    --     53.2590                68.9341               107.2118

                     13                     14                     15
                      A                      A                      A
 Frequencies --    398.9164               431.8001               469.1523
 Red. masses --      1.4319                 6.8324                 7.6793
 Frc consts  --      0.1343                 0.7506                 0.9959
 IR Inten    --     87.3797                96.2185                42.1165

                     16                     17                     18
                      A                      A                      A
 Frequencies --    476.8546               515.0388               522.8308
 Red. masses --      5.5070                 6.6279                 6.4432
 Frc consts  --      0.7378                 1.0359                 1.0377
 IR Inten    --      5.6340               146.9799               147.2962

                     19                     20                     21
                      A                      A                      A
 Frequencies --    533.6527               580.6930               615.0213
 Red. masses --      5.0316                 4.0322                 4.5986
 Frc consts  --      0.8442                 0.8011                 1.0248
 IR Inten    --     42.9412               528.3774               214.0917

                     22                     23                     24
                      A                      A                      A
 Frequencies --    635.6869               640.7713               662.0699
 Red. masses --      7.0200                 5.5195                 6.5876
 Frc consts  --      1.6714                 1.3352                 1.7013
 IR Inten    --      1.9337                29.1019                89.2057

                     25                     26                     27
                      A                      A                      A
 Frequencies --    680.4785               717.0332               727.7763
 Red. masses --      5.7656                 3.7107                 1.7196
 Frc consts  --      1.5730                 1.1240                 0.5366
 IR Inten    --    157.3254                57.1898               358.8661

                     28                     29                     30
                      A                      A                      A
 Frequencies --    744.6613               783.0597               819.3323
 Red. masses --      4.2873                 1.4536                 1.4987
 Frc consts  --      1.4007                 0.5251                 0.5928
 IR Inten    --     66.9917               163.6453               386.6139

                     31                     32                     33
                      A                      A                      A
 Frequencies --    823.4636               831.0472               862.0645
 Red. masses --      4.1970                 1.3925                 1.3499
 Frc consts  --      1.6768                 0.5666                 0.5911
 IR Inten    --    147.3034               463.6398               442.8766

                     34                     35                     36
                      A                      A                      A
 Frequencies --    889.1369               941.5780               989.7683
 Red. masses --      6.5235                 1.2613                 6.0339
 Frc consts  --      3.0386                 0.6588                 3.4827
 IR Inten    --     54.8161                57.3477                38.0435

                     37                     38                     39
                      A                      A                      A
 Frequencies --   1010.6165              1012.3603              1042.6361
 Red. masses --      1.0659                 2.8399                 1.9381
 Frc consts  --      0.6414                 1.7149                 1.2413
 IR Inten    --     71.4197                98.5751               784.7269

                     40                     41                     42
                      A                      A                      A
 Frequencies --   1087.4980              1128.5776              1149.6536
 Red. masses --      2.0745                 1.6733                 1.2479
 Frc consts  --      1.4455                 1.2557                 0.9717
 IR Inten    --    201.0628              1086.4168               272.2311

                     43                     44                     45
                      A                      A                      A
 Frequencies --   1154.8815              1193.5188              1203.9393
 Red. masses --      2.1845                 6.1651                 2.0284
 Frc consts  --      1.7166                 5.1743                 1.7323
 IR Inten    --    431.5379               895.6770               619.6973

                     46                     47                     48
                      A                      A                      A
 Frequencies --   1253.7274              1269.4208              1287.6443
 Red. masses --      2.2934                 2.0847                 3.9005
 Frc consts  --      2.1239                 1.9793                 3.8103
 IR Inten    --    211.3992                57.0794               347.4422

                     49                     50                     51
                      A                      A                      A
 Frequencies --   1320.6192              1333.7763              1359.6710
 Red. masses --      4.0118                 5.1707                 3.6414
 Frc consts  --      4.1224                 5.4196                 3.9663
 IR Inten    --    630.0677              2040.2857               106.0161

                     52                     53                     54
                      A                      A                      A
 Frequencies --   1386.6473              1411.6541              1457.5627
 Red. masses --      3.3303                 4.9103                 2.4946
 Frc consts  --      3.7728                 5.7653                 3.1225
 IR Inten    --    411.3772              1226.3111                24.8629

                     55                     56                     57
                      A                      A                      A
 Frequencies --   1472.7582              1502.4505              1530.8416
 Red. masses --      3.1632                 3.6066                 3.9340
 Frc consts  --      4.0424                 4.7968                 5.4318
 IR Inten    --     92.9838                19.8163               231.7992

                     58                     59                     60
                      A                      A                      A
 Frequencies --   1559.3625              1579.9657              1606.3031
 Red. masses --      4.2067                 4.8910                 5.7930
 Frc consts  --      6.0268                 7.1935                 8.8066
 IR Inten    --    376.0612               124.6720               784.7221

                     61                     62                     63
                      A                      A                      A
 Frequencies --   1662.3816              2680.9427              3101.3594
 Red. masses --      1.7863                 1.0818                 1.0871
 Frc consts  --      2.9085                 4.5813                 6.1606
 IR Inten    --    117.3583              1883.6774               422.8532

                     64                     65                     66
                      A                      A                      A
 Frequencies --   3137.0538              3143.7326              3148.4950
 Red. masses --      1.0871                 1.0870                 1.0937
 Frc consts  --      6.3034                 6.3295                 6.3876
 IR Inten    --     86.5924               173.6252               562.8268

                     67                     68                     69
                      A                      A                      A
 Frequencies --   3170.7386              3180.0670              3761.8743
 Red. masses --      1.0917                 1.0895                 1.0651
 Frc consts  --      6.4669                 6.4918                 8.8810
 IR Inten    --    982.2122                18.8916               657.2999

 - Thermochemistry -
 -------------------
 Temperature   298.150 Kelvin.  Pressure   1.00000 Atm.
 Atom     1 has atomic number  8 and mass  15.99491

 Molecular mass:   228.04226 amu.
 Principal axes and moments of inertia in atomic units:
                           1         2         3
     Eigenvalues --  2164.056454465.215736618.67709
           X            0.99877   0.04949  -0.00170
           Y           -0.00613   0.15758   0.98749
           Z           -0.04914   0.98626  -0.15769
 This molecule is an asymmetric top.
 Rotational symmetry number  1.
 Warning -- assumption of classical behavior for rotation
           may cause significant error
 Rotational temperatures (Kelvin)      0.04002     0.01940     0.01309
 Rotational constants (GHZ):           0.83396     0.40418     0.27267
 Zero-point vibrational energy     463496.2 (Joules/Mol)
                                  110.77826 (Kcal/Mol)
 Warning -- explicit consideration of  21 degrees of freedom as
           vibrations may cause significant error
 Vibrational temperatures:     84.62   128.05   215.25   218.37   271.08
          (Kelvin)            357.91   369.70   423.17   483.74   516.73
                              540.75   557.17   573.95   621.26   675.01
                              686.09   741.03   752.24   767.81   835.49
                              884.88   914.61   921.93   952.57   979.06
                             1031.65  1047.11  1071.40  1126.65  1178.84
                             1184.78  1195.69  1240.32  1279.27  1354.72
                             1424.06  1454.05  1456.56  1500.12  1564.67
                             1623.77  1654.10  1661.62  1717.21  1732.20
                             1803.83  1826.41  1852.63  1900.08  1919.01
                             1956.26  1995.08  2031.06  2097.11  2118.97
                             2161.69  2202.54  2243.57  2273.22  2311.11
                             2391.80  3857.28  4462.16  4513.52  4523.13
                             4529.98  4561.99  4575.41  5412.50

 Zero-point correction=                           0.176536 (Hartree/Particle)
 Thermal correction to Energy=                    0.189280
 Thermal correction to Enthalpy=                  0.190224
 Thermal correction to Gibbs Free Energy=         0.137880
 Sum of electronic and zero-point Energies=           -801.088830
 Sum of electronic and thermal Energies=              -801.076087
 Sum of electronic and thermal Enthalpies=            -801.075142
 Sum of electronic and thermal Free Energies=         -801.127486

                     E (Thermal)             CV                S
                      KCal/Mol        Cal/Mol-Kelvin    Cal/Mol-Kelvin
 Total                  118.775             52.614            110.166
 Electronic               0.000              0.000              0.000
 Translational            0.889              2.981             42.175
 Rotational               0.889              2.981             32.525
 Vibrational            116.997             46.653             35.466
 Vibration     1          0.596              1.974              4.497
 Vibration     2          0.602              1.957              3.682
 Vibration     3          0.618              1.903              2.677
 Vibration     4          0.619              1.901              2.650
 Vibration     5          0.633              1.856              2.243
 Vibration     6          0.662              1.765              1.739
 Vibration     7          0.667              1.751              1.682
 Vibration     8          0.689              1.685              1.450
 Vibration     9          0.717              1.603              1.230
 Vibration    10          0.734              1.556              1.126
 Vibration    11          0.747              1.522              1.056
 Vibration    12          0.756              1.497              1.011
 Vibration    13          0.765              1.472              0.967
 Vibration    14          0.793              1.401              0.853
 Vibration    15          0.826              1.318              0.740
 Vibration    16          0.833              1.301              0.719
 Vibration    17          0.870              1.217              0.622
 Vibration    18          0.878              1.199              0.603
 Vibration    19          0.889              1.176              0.579
 Vibration    20          0.937              1.073              0.484
 Vibration    21          0.975              1.000              0.425

 Optimization completed.
    -- Stationary point found.
 Normal termination of Gaussian 16 at Sat Jan  6 04:20:29 2024.
