 Q-Chem 5.4, Q-Chem, Inc., Pleasanton, CA (2021)
 Q-Chem 5.4.0 for Intel X86 EM64T Linux

User input:
--------------------------------------------------------------
$molecule
0 1
O                 -0.0157950000     -2.6924770000      0.8126190000
C                 -0.0085060000     -1.4774200000      0.7188590000
C                  1.2758040000     -0.7211770000      0.5920860000
C                  2.4238650000     -1.4202060000      0.1957420000
C                  3.6141720000     -0.7451850000     -0.0454200000
C                  3.6758050000      0.6418150000      0.1031290000
C                  2.5535140000      1.3531310000      0.5207610000
C                  1.3672190000      0.6672200000      0.7587660000
S                  0.0116560000      1.6187190000      1.5040640000
O                  0.0193920000      3.0248580000      0.9515400000
C                 -1.3577330000      0.6838910000      0.7629710000
C                 -2.5362740000      1.3842760000      0.5286020000
C                 -3.6684580000      0.6867540000      0.1144380000
C                 -3.6242750000     -0.7009010000     -0.0342800000
C                 -2.4415820000     -1.3904390000      0.2032290000
C                 -1.2838440000     -0.7055220000      0.5960300000
H                  2.3495910000     -2.4930620000      0.0668290000
H                  4.4929820000     -1.2964520000     -0.3588450000
H                  4.5990190000      1.1708790000     -0.1039250000
H                  2.5829350000      2.4291270000      0.6470240000
H                 -2.5521210000      2.4605480000      0.6549390000
H                 -4.5857670000      1.2270720000     -0.0897890000
H                 -4.5107440000     -1.2413310000     -0.3449940000
H                 -2.3808560000     -2.4641190000      0.0740780000
$end
$rem
MAX_SCF_CYCLES=200
BASIS  =  6-311++G(d,p)
GUI  =  2
JOB_TYPE  =  SP
METHOD  =  B3LYP
SOLVENT_METHOD = PCM
$end
$pcm
theory = CPCM
$end
$solvent
dielectric 37.219
opticaldielectric 1.43
$end

--------------------------------------------------------------

             Standard Nuclear Orientation (Angstroms)
    I     Atom           X                Y                Z
 ----------------------------------------------------------------
    1      O      -0.0157950000    -2.6924770000     0.8126190000
    2      C      -0.0085060000    -1.4774200000     0.7188590000
    3      C       1.2758040000    -0.7211770000     0.5920860000
    4      C       2.4238650000    -1.4202060000     0.1957420000
    5      C       3.6141720000    -0.7451850000    -0.0454200000
    6      C       3.6758050000     0.6418150000     0.1031290000
    7      C       2.5535140000     1.3531310000     0.5207610000
    8      C       1.3672190000     0.6672200000     0.7587660000
    9      S       0.0116560000     1.6187190000     1.5040640000
   10      O       0.0193920000     3.0248580000     0.9515400000
   11      C      -1.3577330000     0.6838910000     0.7629710000
   12      C      -2.5362740000     1.3842760000     0.5286020000
   13      C      -3.6684580000     0.6867540000     0.1144380000
   14      C      -3.6242750000    -0.7009010000    -0.0342800000
   15      C      -2.4415820000    -1.3904390000     0.2032290000
   16      C      -1.2838440000    -0.7055220000     0.5960300000
   17      H       2.3495910000    -2.4930620000     0.0668290000
   18      H       4.4929820000    -1.2964520000    -0.3588450000
   19      H       4.5990190000     1.1708790000    -0.1039250000
   20      H       2.5829350000     2.4291270000     0.6470240000
   21      H      -2.5521210000     2.4605480000     0.6549390000
   22      H      -4.5857670000     1.2270720000    -0.0897890000
   23      H      -4.5107440000    -1.2413310000    -0.3449940000
   24      H      -2.3808560000    -2.4641190000     0.0740780000
 ----------------------------------------------------------------

    9   -1049.0020213117      3.03e-06  Convergence criterion met
 Total energy in the final basis set =    -1049.0020213117

                    Orbital Energies (a.u.)
 --------------------------------------------------------------

 Alpha MOs
 -- Occupied --
-88.9790 -19.1338 -19.1155 -10.2894 -10.2313 -10.2313 -10.2151 -10.2151
-10.2021 -10.2021 -10.2007 -10.2007 -10.2007 -10.2007 -10.1957 -10.1957
 -8.0556  -6.0184  -6.0169  -6.0114  -1.0704  -1.0459  -0.9009  -0.8875
 -0.8181  -0.7911  -0.7811  -0.7741  -0.7190  -0.6757  -0.6430  -0.6233
 -0.6106  -0.5726  -0.5601  -0.5157  -0.4922  -0.4916  -0.4856  -0.4662
 -0.4605  -0.4568  -0.4508  -0.4478  -0.4425  -0.4224  -0.3971  -0.3966
 -0.3803  -0.3769  -0.3764  -0.3747  -0.3150  -0.2984  -0.2876  -0.2835
 -0.2822  -0.2754  -0.2558

          Ground-State Mulliken Net Atomic Charges

     Atom                 Charge (a.u.)
  ----------------------------------------
      1 O                    -0.281904
      2 C                    -0.464041
      3 C                     1.452941
      4 C                     0.256644
      5 C                    -0.657882
      6 C                    -0.118061
      7 C                    -0.127801
      8 C                    -1.195321
      9 S                     0.194412
     10 O                    -0.501600
     11 C                    -1.195492
     12 C                    -0.127744
     13 C                    -0.117737
     14 C                    -0.657733
     15 C                     0.256967
     16 C                     1.452533
     17 H                     0.218956
     18 H                     0.223040
     19 H                     0.231661
     20 H                     0.242299
     21 H                     0.242276
     22 H                     0.231656
     23 H                     0.223014
     24 H                     0.218919
  ----------------------------------------
  Sum of atomic charges =     0.000000

                    Cartesian Multipole Moments
 -----------------------------------------------------------------
    Charge (ESU x 10^10)
                 0.0000
    Dipole Moment (Debye)
         X      -0.0096      Y      -1.2743      Z      -1.2416
       Tot       1.7792
    Quadrupole Moments (Debye-Ang)
        XX     -65.0712     XY      -0.3219     YY    -118.5886
        XZ      -0.0419     YZ       2.3904     ZZ    -102.4515

 Total job time:  48.08s(wall), 332.02s(cpu)
        *  Thank you very much for using Q-Chem.  Have a nice day.  *
