 Gaussian 16, Revision A.03,
 Gaussian 16:  ES64L-G16RevA.03 25-Dec-2016

 ----------------------------------------------------------------
 #P UB3LYP/6-311++G(d,p) SCRF=(PCM,Solvent=n,n-DiMethylFormamide)
 ----------------------------------------------------------------

 ------------------
 Radical PCM in DMF
 ------------------
 Symbolic Z-matrix:
 Charge = -1 Multiplicity = 2

                         Standard orientation:
 ---------------------------------------------------------------------
 Center     Atomic      Atomic             Coordinates (Angstroms)
 Number     Number       Type             X           Y           Z
 ---------------------------------------------------------------------
      1          6           0        3.463275   -0.347456    0.000025
      2          6           0        2.001317    0.013661   -0.000016
      3          6           0        1.584362    1.330682    0.000017
      4          6           0        0.209554    1.747469   -0.000028
      5          8           0       -0.135178    2.960865    0.000065
      6          6           0       -0.783119    0.657217   -0.000042
      7          6           0       -2.158625    0.958606   -0.000059
      8          6           0       -3.110100   -0.046291   -0.000003
      9          6           0       -2.704269   -1.395677    0.000070
     10          6           0       -1.357319   -1.712003    0.000036
     11          6           0       -0.372420   -0.703589   -0.000030
     12          6           0        1.051893   -1.077639   -0.000122
     13          8           0        1.420509   -2.285535    0.000021
     14          1           0        4.089880    0.548991   -0.000010
     15          1           0        3.716822   -0.957376    0.874097
     16          1           0        3.716825   -0.957477   -0.873965
     17          1           0        2.319761    2.132117    0.000083
     18          1           0       -2.439198    2.006078   -0.000115
     19          1           0       -4.167464    0.202974    0.000001
     20          1           0       -3.449422   -2.186298    0.000120
     21          1           0       -1.017144   -2.741536    0.000018
 ---------------------------------------------------------------------

 SCF Done:  E(UB3LYP) =  -574.739216273     A.U. after   19 cycles

 The electronic state is 2-A.
 Alpha  occ. eigenvalues --  -19.07424 -19.07398 -10.21910 -10.21706 -10.17247
 Alpha  occ. eigenvalues --  -10.17194 -10.17144 -10.17077 -10.17064 -10.16902
 Alpha  occ. eigenvalues --  -10.16868 -10.15663 -10.15645  -0.99812  -0.99563
 Alpha  occ. eigenvalues --   -0.85630  -0.80886  -0.75237  -0.74870  -0.69855
 Alpha  occ. eigenvalues --   -0.65809  -0.61356  -0.59251  -0.55416  -0.50695
 Alpha  occ. eigenvalues --   -0.49484  -0.46367  -0.44716  -0.42606  -0.42461
 Alpha  occ. eigenvalues --   -0.41809  -0.41199  -0.39518  -0.38939  -0.38070
 Alpha  occ. eigenvalues --   -0.37075  -0.37002  -0.34739  -0.34526  -0.33586
 Alpha  occ. eigenvalues --   -0.27098  -0.25581  -0.24597  -0.24290  -0.23505
 Alpha  occ. eigenvalues --   -0.15061
 Alpha virt. eigenvalues --   -0.03238  -0.01387  -0.00270   0.00681   0.01508
 Alpha virt. eigenvalues --    0.02712   0.02825   0.03766   0.04858   0.04911
 Alpha virt. eigenvalues --    0.05239   0.05629   0.05774   0.06858   0.07527

  Beta  occ. eigenvalues --  -19.06799 -19.06791 -10.21758 -10.21526 -10.17217
  Beta  occ. eigenvalues --  -10.17157 -10.17099 -10.17022 -10.16901 -10.16895
  Beta  occ. eigenvalues --  -10.16857 -10.15675 -10.15523  -0.98735  -0.98460
  Beta  occ. eigenvalues --   -0.85429  -0.80390  -0.75036  -0.74699  -0.69467
  Beta  occ. eigenvalues --   -0.65107  -0.61162  -0.58979  -0.55148  -0.50479
  Beta  occ. eigenvalues --   -0.49201  -0.46089  -0.44593  -0.42398  -0.41624
  Beta  occ. eigenvalues --   -0.41601  -0.40647  -0.38759  -0.38685  -0.37914
  Beta  occ. eigenvalues --   -0.36853  -0.34742  -0.34356  -0.33552  -0.33441
  Beta  occ. eigenvalues --   -0.24942  -0.24516  -0.23851  -0.23716  -0.22943
  Beta virt. eigenvalues --   -0.08410  -0.02496  -0.00272  -0.00250   0.00684
  Beta virt. eigenvalues --    0.01523   0.02722   0.02835   0.03890   0.04886
  Beta virt. eigenvalues --    0.05251   0.05640   0.05685   0.06355   0.07462

 Mulliken charges and spin densities:
               1          2
     1  C   -0.344327   0.001904
     2  C    0.638602   0.095635
     3  C   -0.383111   0.088842
     4  C   -0.823613   0.089760
     5  O   -0.500342   0.217773
     6  C    0.716251   0.051349
     7  C   -0.012860   0.019277
     8  C   -0.405368   0.030089
     9  C   -0.447758   0.018239
    10  C    0.057738   0.037936
    11  C    0.126661  -0.003082
    12  C   -0.462048   0.126117
    13  O   -0.481211   0.232327
    14  H    0.150332  -0.000232
    15  H    0.165506   0.005891
    16  H    0.165501   0.005887
    17  H    0.147920  -0.008962
    18  H    0.160942  -0.002096
    19  H    0.183585  -0.002384
    20  H    0.177609  -0.001809
    21  H    0.169992  -0.002461
 Sum of Mulliken charges =  -1.00000   1.00000

 Dipole moment (field-independent basis, Debye):
    X=             -2.3582    Y=             -1.9320    Z=             -0.0003  Tot=              3.0485
 Quadrupole moment (field-independent basis, Debye-Ang):
   XX=            -78.6104   YY=           -114.5750   ZZ=            -81.7169
   XY=             10.0178   XZ=              0.0000   YZ=             -0.0005

 Normal termination of Gaussian 16 at Sun Jan 21 08:17:30 2024.
