 Gaussian 16, Revision A.03,
 Gaussian 16:  ES64L-G16RevA.03 25-Dec-2016

 --------------------------------------
 #P UB3LYP/6-311++G(d,p) nosym opt freq
 --------------------------------------

 -------
 Radical
 -------
 Symbolic Z-matrix:
 Charge = -1 Multiplicity = 2

 SCF Done:  E(UB3LYP) =  -574.660608510     A.U. after   20 cycles
 SCF Done:  E(UB3LYP) =  -574.660609203     A.U. after   11 cycles
 SCF Done:  E(UB3LYP) =  -574.660609750     A.U. after   12 cycles
 SCF Done:  E(UB3LYP) =  -574.660610081     A.U. after   10 cycles
 SCF Done:  E(UB3LYP) =  -574.660610405     A.U. after   10 cycles
 SCF Done:  E(UB3LYP) =  -574.660610681     A.U. after   11 cycles
 Optimization completed.
    -- Stationary point found.
 Normal termination of Gaussian 16 at Sun Jan  7 20:26:58 2024.

 ----------------------------------------------------------------------
 #P Geom=AllCheck Guess=TCheck SCRF=Check GenChk UB3LYP/6-311++G(d,p) F
 req
 ----------------------------------------------------------------------

 Structure from the checkpoint file:  "236-rad.chk"
 -------
 Radical
 -------
 Charge = -1 Multiplicity = 2

                          Input orientation:
 ---------------------------------------------------------------------
 Center     Atomic      Atomic             Coordinates (Angstroms)
 Number     Number       Type             X           Y           Z
 ---------------------------------------------------------------------
      1          6           0       -3.230764    0.061869    1.003874
      2          6           0       -1.885873   -0.006322    0.329825
      3          6           0       -1.771211   -0.227918   -1.028904
      4          6           0       -0.523590   -0.304889   -1.736948
      5          8           0       -0.456365   -0.508893   -2.979942
      6          6           0        0.685397   -0.128887   -0.911465
      7          6           0        1.959260   -0.186679   -1.508780
      8          6           0        3.109189   -0.024727   -0.756082
      9          6           0        3.012542    0.202091    0.631273
     10          6           0        1.769818    0.262261    1.236544
     11          6           0        0.586532    0.099919    0.487943
     12          6           0       -0.718809    0.170185    1.165975
     13          8           0       -0.810523    0.373173    2.409066
     14          1           0       -4.040041   -0.083853    0.282704
     15          1           0       -3.314893   -0.697049    1.789530
     16          1           0       -3.370653    1.026610    1.503853
     17          1           0       -2.665474   -0.357319   -1.634427
     18          1           0        2.000700   -0.362558   -2.578017
     19          1           0        4.084525   -0.072096   -1.232137
     20          1           0        3.913920    0.329523    1.224243
     21          1           0        1.666311    0.435557    2.301867
 ---------------------------------------------------------------------

 SCF Done:  E(UB3LYP) =  -574.660610681     A.U. after    1 cycles

 Alpha  occ. eigenvalues --  -18.93653 -18.93503 -10.08286 -10.08217 -10.05222
 Alpha  occ. eigenvalues --  -10.05167 -10.04429 -10.04413 -10.04209 -10.04128
 Alpha  occ. eigenvalues --  -10.04041 -10.04012 -10.02648  -0.85984  -0.85643
 Alpha  occ. eigenvalues --   -0.72947  -0.68029  -0.62791  -0.62255  -0.57303
 Alpha  occ. eigenvalues --   -0.52982  -0.48767  -0.46760  -0.42622  -0.38091
 Alpha  occ. eigenvalues --   -0.36888  -0.33435  -0.32303  -0.29927  -0.29891
 Alpha  occ. eigenvalues --   -0.29045  -0.27755  -0.26772  -0.26094  -0.25699
 Alpha  occ. eigenvalues --   -0.24494  -0.23361  -0.21904  -0.21902  -0.20812
 Alpha  occ. eigenvalues --   -0.13692  -0.12842  -0.11886  -0.10366  -0.09685
 Alpha  occ. eigenvalues --   -0.01526
 Alpha virt. eigenvalues --    0.08594   0.09402   0.09477   0.10565   0.11025
 Alpha virt. eigenvalues --    0.11959   0.12250   0.13527   0.14246   0.14347
 Alpha virt. eigenvalues --    0.16180   0.16911   0.17580   0.17614   0.18575

  Beta  occ. eigenvalues --  -18.92991 -18.92836 -10.08178 -10.08073 -10.05188
  Beta  occ. eigenvalues --  -10.05125 -10.04443 -10.04414 -10.04148 -10.04054
  Beta  occ. eigenvalues --  -10.04034 -10.03873 -10.02510  -0.84846  -0.84477
  Beta  occ. eigenvalues --   -0.72758  -0.67536  -0.62588  -0.62105  -0.56977
  Beta  occ. eigenvalues --   -0.52246  -0.48590  -0.46473  -0.42387  -0.37893
  Beta  occ. eigenvalues --   -0.36623  -0.33195  -0.32162  -0.29850  -0.29307
  Beta  occ. eigenvalues --   -0.28823  -0.27393  -0.25972  -0.25911  -0.25252
  Beta  occ. eigenvalues --   -0.24304  -0.21725  -0.21086  -0.20595  -0.20518
  Beta  occ. eigenvalues --   -0.12226  -0.11400  -0.10513  -0.09744  -0.09070
  Beta virt. eigenvalues --    0.05167   0.08588   0.09396   0.10089   0.10558
  Beta virt. eigenvalues --    0.11960   0.12051   0.12251   0.13704   0.14239
  Beta virt. eigenvalues --    0.14340   0.16223   0.16933   0.17574   0.18067

 Mulliken charges and spin densities:
               1          2
     1  C   -0.372189   0.002513
     2  C    0.804419   0.084997
     3  C   -0.314715   0.110264
     4  C   -1.050984   0.053464
     5  O   -0.403503   0.241967
     6  C    0.793244   0.068589
     7  C   -0.038870   0.008509
     8  C   -0.326843   0.033890
     9  C   -0.375200   0.021797
    10  C    0.037141   0.027922
    11  C    0.213679   0.010682
    12  C   -0.664085   0.096346
    13  O   -0.391934   0.247332
    14  H    0.121475  -0.000293
    15  H    0.153173   0.005706
    16  H    0.153184   0.005700
    17  H    0.109756  -0.010182
    18  H    0.152131  -0.002023
    19  H    0.122795  -0.002815
    20  H    0.116765  -0.002124
    21  H    0.160560  -0.002242
 Sum of Mulliken charges =  -1.00000   1.00000

 Dipole moment (field-independent basis, Debye):
    X=              1.4171    Y=              0.2871    Z=              1.4539  Tot=              2.0504
 Quadrupole moment (field-independent basis, Debye-Ang):
   XX=            -85.9208   YY=            -82.8308   ZZ=           -113.5483
   XY=              0.1030   XZ=              1.3929   YZ=             -5.1903

  Exact polarizability: 212.862   3.069  84.161  -7.180  17.019 185.317
 Approx polarizability: 307.021   4.539 131.482  -8.059  35.469 340.968

                      1                      2                      3
                      A                      A                      A
 Frequencies --     81.0497               109.7336               135.5006
 Red. masses --      4.8664                 1.0780                 3.9171
 Frc consts  --      0.0188                 0.0076                 0.0424
 IR Inten    --      8.7022                 0.0162                 0.2624

                      4                      5                      6
                      A                      A                      A
 Frequencies --    168.6321               230.7260               254.7315
 Red. masses --      5.6548                 4.0954                 3.9817
 Frc consts  --      0.0947                 0.1285                 0.1522
 IR Inten    --      1.6826                 0.0439                 4.0745

                      7                      8                      9
                      A                      A                      A
 Frequencies --    295.3869               367.6691               371.6773
 Red. masses --      4.0010                10.9767                 4.8817
 Frc consts  --      0.2057                 0.8743                 0.3973
 IR Inten    --      0.1167                 8.6697                 0.3949

                     10                     11                     12
                      A                      A                      A
 Frequencies --    418.7878               438.0962               474.1842
 Red. masses --      6.2980                 3.4023                 8.8666
 Frc consts  --      0.6508                 0.3847                 1.1746
 IR Inten    --      1.0278                 1.0675                 0.8523

                     13                     14                     15
                      A                      A                      A
 Frequencies --    489.3295               528.0878               646.3940
 Red. masses --      3.8348                 7.8315                 4.8054
 Frc consts  --      0.5410                 1.2868                 1.1830
 IR Inten    --      0.0005                 2.0507                 2.9815

                     16                     17                     18
                      A                      A                      A
 Frequencies --    658.8302               660.0006               689.9041
 Red. masses --      3.0388                 5.5005                 3.3171
 Frc consts  --      0.7771                 1.4117                 0.9302
 IR Inten    --      7.3429                 6.5947                21.8519

                     19                     20                     21
                      A                      A                      A
 Frequencies --    727.5277               770.2637               790.1842
 Red. masses --      6.1090                 1.4612                 4.3561
 Frc consts  --      1.9051                 0.5108                 1.6025
 IR Inten    --     12.4878                52.1861                 0.0162

                     22                     23                     24
                      A                      A                      A
 Frequencies --    815.9706               866.6928               870.9809
 Red. masses --      4.4045                 1.5615                 1.4413
 Frc consts  --      1.7278                 0.6911                 0.6442
 IR Inten    --      2.4422                16.3225                 1.1706

                     25                     26                     27
                      A                      A                      A
 Frequencies --    955.6730               977.5995               980.6169
 Red. masses --      4.7321                 1.3563                 1.2606
 Frc consts  --      2.5464                 0.7637                 0.7142
 IR Inten    --     23.9235                 2.4654                 0.1658

                     28                     29                     30
                      A                      A                      A
 Frequencies --   1020.8516              1037.5196              1046.8884
 Red. masses --      1.6597                 2.1201                 1.4888
 Frc consts  --      1.0191                 1.3446                 0.9613
 IR Inten    --     11.2980                21.1792                 0.9824

                     31                     32                     33
                      A                      A                      A
 Frequencies --   1100.2290              1131.9070              1154.2983
 Red. masses --      2.4027                 2.1545                 1.4492
 Frc consts  --      1.7137                 1.6264                 1.1376
 IR Inten    --      6.2196                 4.8638                 3.3555

                     34                     35                     36
                      A                      A                      A
 Frequencies --   1181.0651              1227.5649              1242.8879
 Red. masses --      2.0823                 3.0635                 1.7854
 Frc consts  --      1.7114                 2.7200                 1.6250
 IR Inten    --     15.3275                15.8431                29.2355

                     37                     38                     39
                      A                      A                      A
 Frequencies --   1295.2001              1352.3471              1391.3708
 Red. masses --      1.8665                10.1506                 1.5018
 Frc consts  --      1.8448                10.9375                 1.7130
 IR Inten    --      5.5922                 7.7966                13.1404

                     40                     41                     42
                      A                      A                      A
 Frequencies --   1405.1050              1462.3699              1464.8342
 Red. masses --      2.3626                 3.5660                 1.0466
 Frc consts  --      2.7482                 4.4931                 1.3231
 IR Inten    --     34.8210               156.4452                 4.2500

                     43                     44                     45
                      A                      A                      A
 Frequencies --   1469.8678              1481.0091              1512.6110
 Red. masses --      2.1651                 1.3917                 5.6628
 Frc consts  --      2.7560                 1.7984                 7.6337
 IR Inten    --     33.9260                 1.9514                 5.0554

                     46                     47                     48
                      A                      A                      A
 Frequencies --   1531.6562              1554.9646              1622.1341
 Red. masses --      4.5255                 4.8290                 6.9304
 Frc consts  --      6.2551                 6.8793                10.7444
 IR Inten    --    444.8889                53.2294                 0.6768

                     49                     50                     51
                      A                      A                      A
 Frequencies --   1628.7542              3005.6622              3046.7609
 Red. masses --      6.3195                 1.0344                 1.0987
 Frc consts  --      9.8775                 5.5060                 6.0093
 IR Inten    --     19.6971                96.6300                34.8988

                     52                     53                     54
                      A                      A                      A
 Frequencies --   3077.5692              3129.4519              3131.0264
 Red. masses --      1.1022                 1.0845                 1.0884
 Frc consts  --      6.1508                 6.2574                 6.2866
 IR Inten    --     26.0598                20.4475                38.6257

                     55                     56                     57
                      A                      A                      A
 Frequencies --   3149.0760              3177.4775              3180.2306
 Red. masses --      1.0911                 1.0912                 1.0928
 Frc consts  --      6.3750                 6.4913                 6.5117
 IR Inten    --     51.1958                13.6587                26.1008

 - Thermochemistry -
 -------------------
 Temperature   298.150 Kelvin.  Pressure   1.00000 Atm.
 Atom     1 has atomic number  6 and mass  12.00000

 Molecular mass:   172.05243 amu.
 Principal axes and moments of inertia in atomic units:
                           1         2         3
     Eigenvalues --  1437.110432312.652803738.76567
           X            0.97033   0.23967  -0.03191
           Y           -0.00866   0.16634   0.98603
           Z           -0.24163   0.95650  -0.16348
 This molecule is an asymmetric top.
 Rotational symmetry number  1.
 Warning -- assumption of classical behavior for rotation
           may cause significant error
 Rotational temperatures (Kelvin)      0.06027     0.03745     0.02317
 Rotational constants (GHZ):           1.25581     0.78038     0.48271
 Zero-point vibrational energy     412633.4 (Joules/Mol)
                                   98.62176 (Kcal/Mol)
 Warning -- explicit consideration of  14 degrees of freedom as
           vibrations may cause significant error
 Vibrational temperatures:    116.61   157.88   194.96   242.62   331.96
          (Kelvin)            366.50   425.00   528.99   534.76   602.54
                              630.32   682.25   704.04   759.80   930.02
                              947.91   949.59   992.62  1046.75  1108.24
                             1136.90  1174.00  1246.98  1253.15  1375.00
                             1406.55  1410.89  1468.78  1492.76  1506.24
                             1582.98  1628.56  1660.78  1699.29  1766.19
                             1788.24  1863.50  1945.73  2001.87  2021.63
                             2104.02  2107.57  2114.81  2130.84  2176.31
                             2203.71  2237.25  2333.89  2343.41  4324.48
                             4383.61  4427.94  4502.58  4504.85  4530.82
                             4571.68  4575.64

 Zero-point correction=                           0.157164 (Hartree/Particle)
 Thermal correction to Energy=                    0.167500
 Thermal correction to Enthalpy=                  0.168445
 Thermal correction to Gibbs Free Energy=         0.120625
 Sum of electronic and zero-point Energies=           -574.503447
 Sum of electronic and thermal Energies=              -574.493110
 Sum of electronic and thermal Enthalpies=            -574.492166
 Sum of electronic and thermal Free Energies=         -574.539986

                     E (Thermal)             CV                S
                      KCal/Mol        Cal/Mol-Kelvin    Cal/Mol-Kelvin
 Total                  105.108             40.733            100.645
 Electronic               0.000              0.000              1.377
 Translational            0.889              2.981             41.335
 Rotational               0.889              2.981             30.897
 Vibrational            103.331             34.771             27.035
 Vibration     1          0.600              1.962              3.865
 Vibration     2          0.606              1.941              3.274
 Vibration     3          0.613              1.918              2.866
 Vibration     4          0.625              1.881              2.451
 Vibration     5          0.652              1.794              1.873
 Vibration     6          0.665              1.755              1.698
 Vibration     7          0.690              1.682              1.443
 Vibration     8          0.740              1.539              1.089
 Vibration     9          0.743              1.530              1.073
 Vibration    10          0.782              1.429              0.896
 Vibration    11          0.798              1.387              0.833
 Vibration    12          0.831              1.307              0.726
 Vibration    13          0.845              1.274              0.685
 Vibration    14          0.883              1.188              0.591

 Optimization completed.
    -- Stationary point found.
 Normal termination of Gaussian 16 at Sun Jan  7 20:45:23 2024.
