 Gaussian 16, Revision A.03,
 Gaussian 16:  ES64L-G16RevA.03 25-Dec-2016

 ----------------------------------------------------------------
 #P UB3LYP/6-311++G(d,p) SCRF=(PCM,Solvent=n,n-DiMethylFormamide)
 ----------------------------------------------------------------

 ------------------
 Radical PCM in DMF
 ------------------
 Symbolic Z-matrix:
 Charge = -1 Multiplicity = 2

                         Standard orientation:
 ---------------------------------------------------------------------
 Center     Atomic      Atomic             Coordinates (Angstroms)
 Number     Number       Type             X           Y           Z
 ---------------------------------------------------------------------
      1          6           0       -2.473408   -1.147382   -0.001210
      2          6           0       -3.670018   -0.458414   -0.001641
      3          6           0       -3.680441    0.954762   -0.001627
      4          6           0       -1.240309   -0.464002   -0.000785
      5          6           0       -1.240405    0.964294   -0.000662
      6          6           0       -2.475279    1.635289   -0.001083
      7          6           0       -0.000016   -1.238705   -0.000341
      8          6           0        1.240322   -0.464081    0.000229
      9          6           0        1.240385    0.964216    0.000307
     10          6           0        0.000013    1.743126   -0.000149
     11          6           0        2.473440   -1.147414    0.000643
     12          6           0        3.670033   -0.458400    0.001255
     13          6           0        3.680430    0.954777    0.001366
     14          6           0        2.475238    1.635247    0.000867
     15          8           0       -0.000099   -2.498636   -0.000365
     16          8           0        0.000095    2.997902   -0.000027
     17          1           0       -2.453412    2.719254   -0.001042
     18          1           0        2.453265    2.719206    0.000918
     19          1           0       -2.463949   -2.230358   -0.001145
     20          1           0        2.464093   -2.230393    0.000510
     21          8           0        4.822654   -1.226075    0.001949
     22          6           0        6.068966   -0.563845   -0.001929
     23          8           0       -4.822656   -1.226075   -0.002414
     24          1           0        4.609308    1.510822    0.001871
     25          1           0        6.827516   -1.348048   -0.002729
     26          1           0        6.204165    0.062634    0.889178
     27          1           0        6.199670    0.060327   -0.895307
     28          6           0       -6.068950   -0.563824    0.004423
     29          1           0       -4.609327    1.510770   -0.002086
     30          1           0       -6.827510   -1.348017    0.005994
     31          1           0       -6.205898    0.063423   -0.885881
     32          1           0       -6.197882    0.059583    0.898592
 ---------------------------------------------------------------------

 SCF Done:  E(UB3LYP) =  -918.209438184     A.U. after   19 cycles

 The electronic state is 2-A.
 Alpha  occ. eigenvalues --  -19.15537 -19.15537 -19.07496 -19.07151 -10.23558
 Alpha  occ. eigenvalues --  -10.23558 -10.22562 -10.21907 -10.21907 -10.21752
 Alpha  occ. eigenvalues --  -10.17452 -10.17452 -10.17430 -10.17429 -10.17388
 Alpha  occ. eigenvalues --  -10.17388 -10.16767 -10.16766 -10.16480 -10.16480
 Alpha  occ. eigenvalues --   -1.06702  -1.06701  -1.00225  -0.99649  -0.86149
 Alpha  occ. eigenvalues --   -0.85171  -0.78602  -0.76034  -0.76013  -0.74295
 Alpha  occ. eigenvalues --   -0.70726  -0.69472  -0.65859  -0.63555  -0.60686
 Alpha  occ. eigenvalues --   -0.59408  -0.56050  -0.54107  -0.54082  -0.50109
 Alpha  occ. eigenvalues --   -0.49777  -0.48858  -0.46945  -0.46910  -0.46882
 Alpha  occ. eigenvalues --   -0.44833  -0.43693  -0.42885  -0.42499  -0.42074
 Alpha  occ. eigenvalues --   -0.41909  -0.41042  -0.39855  -0.39512  -0.37981
 Alpha  occ. eigenvalues --   -0.37889  -0.37744  -0.36246  -0.35881  -0.35459
 Alpha  occ. eigenvalues --   -0.33198  -0.32789  -0.32117  -0.30969  -0.26262
 Alpha  occ. eigenvalues --   -0.25768  -0.24497  -0.23877  -0.23601  -0.22608
 Alpha  occ. eigenvalues --   -0.13689
 Alpha virt. eigenvalues --   -0.05329  -0.01429  -0.00445  -0.00106   0.00014
 Alpha virt. eigenvalues --    0.01177   0.01250   0.01969   0.02944   0.03313
 Alpha virt. eigenvalues --    0.03519   0.03736   0.04027   0.04795   0.05223

  Beta  occ. eigenvalues --  -19.15515 -19.15514 -19.07045 -19.06548 -10.23532
  Beta  occ. eigenvalues --  -10.23532 -10.22415 -10.21908 -10.21908 -10.21512
  Beta  occ. eigenvalues --  -10.17459 -10.17459 -10.17360 -10.17360 -10.17348
  Beta  occ. eigenvalues --  -10.17348 -10.16700 -10.16700 -10.16423 -10.16423
  Beta  occ. eigenvalues --   -1.06656  -1.06656  -0.99425  -0.98571  -0.85897
  Beta  occ. eigenvalues --   -0.85061  -0.78239  -0.75918  -0.75780  -0.74149
  Beta  occ. eigenvalues --   -0.70495  -0.69408  -0.65258  -0.63369  -0.60469
  Beta  occ. eigenvalues --   -0.59329  -0.55832  -0.54004  -0.53926  -0.49949
  Beta  occ. eigenvalues --   -0.49685  -0.48662  -0.46858  -0.46831  -0.46813
  Beta  occ. eigenvalues --   -0.44708  -0.43466  -0.42844  -0.42387  -0.41854
  Beta  occ. eigenvalues --   -0.40884  -0.40558  -0.39762  -0.39272  -0.37729
  Beta  occ. eigenvalues --   -0.37677  -0.36032  -0.35751  -0.35310  -0.35136
  Beta  occ. eigenvalues --   -0.33161  -0.32693  -0.31933  -0.29973  -0.25292
  Beta  occ. eigenvalues --   -0.24604  -0.24029  -0.23093  -0.22792  -0.22208
  Beta virt. eigenvalues --   -0.07816  -0.04419  -0.00594  -0.00436   0.00011
  Beta virt. eigenvalues --    0.00320   0.01183   0.01267   0.01964   0.02947
  Beta virt. eigenvalues --    0.03356   0.03525   0.03741   0.04049   0.04789

 Mulliken charges and spin densities:
               1          2
     1  C   -0.565056   0.065481
     2  C   -0.784845   0.005904
     3  C    0.041314   0.037956
     4  C    0.766476   0.054288
     5  C    0.547853   0.027029
     6  C    0.035617   0.006139
     7  C   -0.712562   0.141448
     8  C    0.766371   0.054271
     9  C    0.548035   0.027038
    10  C   -0.471165   0.077314
    11  C   -0.565183   0.065493
    12  C   -0.784820   0.005893
    13  C    0.041194   0.037964
    14  C    0.035750   0.006133
    15  O   -0.469548   0.226709
    16  O   -0.460103   0.166432
    17  H    0.167361  -0.000420
    18  H    0.167363  -0.000420
    19  H    0.173655  -0.004659
    20  H    0.173648  -0.004659
    21  O   -0.211164   0.004884
    22  C   -0.343246   0.000208
    23  O   -0.211162   0.004885
    24  H    0.217278  -0.003173
    25  H    0.188988  -0.000017
    26  H    0.161199   0.000215
    27  H    0.161277   0.000216
    28  C   -0.343263   0.000207
    29  H    0.217275  -0.003172
    30  H    0.188989  -0.000017
    31  H    0.161174   0.000215
    32  H    0.161300   0.000216
 Sum of Mulliken charges =  -1.00000   1.00000

 Dipole moment (field-independent basis, Debye):
    X=              0.0001    Y=              2.0769    Z=              0.0051  Tot=              2.0769
 Quadrupole moment (field-independent basis, Debye-Ang):
   XX=            -87.5515   YY=           -158.9228   ZZ=           -122.7479
   XY=             -0.0017   XZ=             -0.0826   YZ=             -0.0064

 Normal termination of Gaussian 16 at Sun Jan 14 01:19:11 2024.
