 Gaussian 16, Revision A.03,
 Gaussian 16:  ES64L-G16RevA.03 25-Dec-2016

 ----------------------------------------------------------------
 #P UB3LYP/6-311++G(d,p) SCRF=(PCM,Solvent=n,n-DiMethylFormamide)
 ----------------------------------------------------------------

 ------------------
 Quinone PCM in DMF
 ------------------
 Symbolic Z-matrix:
 Charge =  0 Multiplicity = 1

                         Standard orientation:
 ---------------------------------------------------------------------
 Center     Atomic      Atomic             Coordinates (Angstroms)
 Number     Number       Type             X           Y           Z
 ---------------------------------------------------------------------
      1          6           0       -2.936933   -0.232889    1.274821
      2          6           0       -2.217059   -0.715901   -0.000272
      3          6           0       -2.937810   -0.231459   -1.274296
      4          6           0       -0.745318   -0.354260   -0.000333
      5          6           0        0.218158   -1.293630   -0.000281
      6          6           0        1.664055   -0.987225   -0.000221
      7          8           0        2.494069   -1.883729   -0.000309
      8          6           0        2.085071    0.450069   -0.000029
      9          6           0        1.128838    1.393731   -0.000167
     10          6           0       -0.319382    1.086993   -0.000100
     11          8           0       -1.133954    1.998136    0.000439
     12          6           0        3.554289    0.737333    0.000325
     13          1           0       -2.974156    0.856129    1.317676
     14          1           0       -3.962364   -0.612970    1.283563
     15          1           0       -2.436561   -0.599758    2.175200
     16          1           0       -2.251510   -1.811306   -0.000861
     17          1           0       -2.975601    0.857598   -1.315692
     18          1           0       -2.437734   -0.596824   -2.175457
     19          1           0       -3.963063   -0.612005   -1.283003
     20          1           0       -0.021210   -2.352628   -0.000416
     21          1           0        1.367143    2.452665   -0.000048
     22          1           0        4.032789    0.288437    0.875185
     23          1           0        3.744511    1.811188   -0.000084
     24          1           0        4.033400    0.287638   -0.873786
 ---------------------------------------------------------------------

 SCF Done:  E(UB3LYP) =  -538.880016036     A.U. after   14 cycles

 The electronic state is 1-A.
 Alpha  occ. eigenvalues --  -19.14123 -19.14006 -10.28568 -10.28449 -10.21951
 Alpha  occ. eigenvalues --  -10.21683 -10.20280 -10.20250 -10.19313 -10.17893
 Alpha  occ. eigenvalues --  -10.16221 -10.16221  -1.07219  -1.07029  -0.86888
 Alpha  occ. eigenvalues --   -0.82889  -0.77793  -0.72913  -0.68980  -0.68957
 Alpha  occ. eigenvalues --   -0.62894  -0.61640  -0.56361  -0.53118  -0.49552
 Alpha  occ. eigenvalues --   -0.48489  -0.46037  -0.45937  -0.44876  -0.44359
 Alpha  occ. eigenvalues --   -0.43215  -0.42292  -0.41424  -0.40913  -0.40729
 Alpha  occ. eigenvalues --   -0.39136  -0.38564  -0.36136  -0.35275  -0.34645
 Alpha  occ. eigenvalues --   -0.30420  -0.28772  -0.28510  -0.27544
 Alpha virt. eigenvalues --   -0.13291  -0.02521  -0.00678  -0.00494   0.00179
 Alpha virt. eigenvalues --    0.01060   0.01870   0.02429   0.02682   0.03897
 Alpha virt. eigenvalues --    0.03995   0.04787   0.05036   0.05151   0.06140

  Beta  occ. eigenvalues --  -19.14123 -19.14006 -10.28568 -10.28449 -10.21951
  Beta  occ. eigenvalues --  -10.21683 -10.20280 -10.20250 -10.19313 -10.17893
  Beta  occ. eigenvalues --  -10.16221 -10.16221  -1.07219  -1.07029  -0.86888
  Beta  occ. eigenvalues --   -0.82889  -0.77793  -0.72913  -0.68980  -0.68957
  Beta  occ. eigenvalues --   -0.62894  -0.61640  -0.56361  -0.53118  -0.49552
  Beta  occ. eigenvalues --   -0.48489  -0.46037  -0.45937  -0.44876  -0.44359
  Beta  occ. eigenvalues --   -0.43215  -0.42292  -0.41424  -0.40913  -0.40729
  Beta  occ. eigenvalues --   -0.39136  -0.38564  -0.36136  -0.35275  -0.34645
  Beta  occ. eigenvalues --   -0.30420  -0.28772  -0.28510  -0.27544
  Beta virt. eigenvalues --   -0.13291  -0.02521  -0.00678  -0.00494   0.00179
  Beta virt. eigenvalues --    0.01060   0.01870   0.02429   0.02682   0.03897
  Beta virt. eigenvalues --    0.03995   0.04787   0.05036   0.05151   0.06140

 Mulliken charges and spin densities:
               1          2
     1  C   -0.689680   0.000000
     2  C    0.151381  -0.000000
     3  C   -0.689502   0.000000
     4  C    1.260400  -0.000000
     5  C   -0.144402   0.000000
     6  C   -0.885173  -0.000000
     7  O   -0.280679   0.000000
     8  C    1.189609   0.000000
     9  C   -0.746219  -0.000000
    10  C   -0.720232   0.000000
    11  O   -0.252393  -0.000000
    12  C   -0.337774   0.000000
    13  H    0.179448  -0.000000
    14  H    0.162608  -0.000000
    15  H    0.137137   0.000000
    16  H    0.202032  -0.000000
    17  H    0.179442  -0.000000
    18  H    0.137112   0.000000
    19  H    0.162633  -0.000000
    20  H    0.224739   0.000000
    21  H    0.209729   0.000000
    22  H    0.190764  -0.000000
    23  H    0.168332  -0.000000
    24  H    0.190689  -0.000000
 Sum of Mulliken charges =  -0.00000  -0.00000

 Dipole moment (field-independent basis, Debye):
    X=             -0.2055    Y=              0.0439    Z=             -0.0003  Tot=              0.2102
 Quadrupole moment (field-independent basis, Debye-Ang):
   XX=            -71.7487   YY=            -80.2912   ZZ=            -71.9652
   XY=             15.9238   XZ=              0.0039   YZ=             -0.0028

 Normal termination of Gaussian 16 at Sun Jan 21 06:57:04 2024.
