 Gaussian 16, Revision A.03,
 Gaussian 16:  ES64L-G16RevA.03 25-Dec-2016

 --------------------------------------
 #P UB3LYP/6-311++G(d,p) nosym opt freq
 --------------------------------------

 -------
 Radical
 -------
 Symbolic Z-matrix:
 Charge = -1 Multiplicity = 2

 SCF Done:  E(UB3LYP) =  -574.650835127     A.U. after   21 cycles
 SCF Done:  E(UB3LYP) =  -574.650834470     A.U. after   11 cycles
 SCF Done:  E(UB3LYP) =  -574.650835642     A.U. after   10 cycles
 SCF Done:  E(UB3LYP) =  -574.650835381     A.U. after    9 cycles
 SCF Done:  E(UB3LYP) =  -574.650872566     A.U. after   13 cycles
 SCF Done:  E(UB3LYP) =  -574.650982572     A.U. after   15 cycles
 SCF Done:  E(UB3LYP) =  -574.650141137     A.U. after   16 cycles
 SCF Done:  E(UB3LYP) =  -574.651532868     A.U. after   16 cycles
 SCF Done:  E(UB3LYP) =  -574.650891385     A.U. after   17 cycles
 SCF Done:  E(UB3LYP) =  -574.652112342     A.U. after   17 cycles
 SCF Done:  E(UB3LYP) =  -574.652833891     A.U. after   18 cycles
 SCF Done:  E(UB3LYP) =  -574.653553063     A.U. after   16 cycles
 SCF Done:  E(UB3LYP) =  -574.653793164     A.U. after   15 cycles
 SCF Done:  E(UB3LYP) =  -574.653838370     A.U. after   14 cycles
 SCF Done:  E(UB3LYP) =  -574.653846186     A.U. after   13 cycles
 SCF Done:  E(UB3LYP) =  -574.653847655     A.U. after   12 cycles
 Optimization completed.
    -- Stationary point found.
 Normal termination of Gaussian 16 at Sun Jan  7 20:58:28 2024.

 ----------------------------------------------------------------------
 #P Geom=AllCheck Guess=TCheck SCRF=Check GenChk UB3LYP/6-311++G(d,p) F
 req
 ----------------------------------------------------------------------

 Structure from the checkpoint file:  "237-rad.chk"
 -------
 Radical
 -------
 Charge = -1 Multiplicity = 2

                          Input orientation:
 ---------------------------------------------------------------------
 Center     Atomic      Atomic             Coordinates (Angstroms)
 Number     Number       Type             X           Y           Z
 ---------------------------------------------------------------------
      1          6           0        5.761809   -5.283201    1.248408
      2          6           0        6.731901   -5.153797    0.276510
      3          6           0        6.614125   -4.140158   -0.687817
      4          6           0        4.658012   -4.410986    1.282596
      5          6           0        4.531005   -3.375628    0.304255
      6          6           0        5.542637   -3.253283   -0.696598
      7          6           0        3.659002   -4.613170    2.355304
      8          6           0        2.552423   -3.702326    2.352569
      9          6           0        2.421036   -2.703691    1.417314
     10          6           0        3.363409   -2.466455    0.356048
     11          8           0        3.784905   -5.531747    3.211060
     12          8           0        3.183347   -1.529931   -0.472644
     13          1           0        5.811130   -6.050402    2.012313
     14          6           0        5.511585   -2.197339   -1.780212
     15          1           0        7.583287   -5.828250    0.252384
     16          1           0        7.379536   -4.040247   -1.453053
     17          1           0        1.809686   -3.837310    3.134192
     18          1           0        1.570071   -2.028413    1.441662
     19          1           0        5.496087   -1.189694   -1.360553
     20          1           0        4.608210   -2.270026   -2.388352
     21          1           0        6.391094   -2.306357   -2.424697
 ---------------------------------------------------------------------

 SCF Done:  E(UB3LYP) =  -574.653847655     A.U. after    1 cycles

 Alpha  occ. eigenvalues --  -18.93482 -18.93454 -10.08508 -10.08215 -10.06025
 Alpha  occ. eigenvalues --  -10.05024 -10.04748 -10.04670 -10.04248 -10.04009
 Alpha  occ. eigenvalues --  -10.03948 -10.02865 -10.02791  -0.85936  -0.85628
 Alpha  occ. eigenvalues --   -0.73141  -0.67147  -0.64594  -0.61051  -0.56472
 Alpha  occ. eigenvalues --   -0.53534  -0.48372  -0.47887  -0.41410  -0.37553
 Alpha  occ. eigenvalues --   -0.36988  -0.34179  -0.32463  -0.29785  -0.29484
 Alpha  occ. eigenvalues --   -0.28451  -0.27786  -0.26695  -0.26179  -0.25881
 Alpha  occ. eigenvalues --   -0.24303  -0.23433  -0.21853  -0.21737  -0.21049
 Alpha  occ. eigenvalues --   -0.13962  -0.12285  -0.12097  -0.10078  -0.09569
 Alpha  occ. eigenvalues --   -0.01539
 Alpha virt. eigenvalues --    0.08457   0.09701   0.09874   0.10565   0.10879
 Alpha virt. eigenvalues --    0.11691   0.12677   0.13552   0.13917   0.14019
 Alpha virt. eigenvalues --    0.16569   0.17085   0.17837   0.18371   0.18409

  Beta  occ. eigenvalues --  -18.92790 -18.92779 -10.08394 -10.08099 -10.06030
  Beta  occ. eigenvalues --  -10.04985 -10.04705 -10.04620 -10.04178 -10.04013
  Beta  occ. eigenvalues --  -10.03947 -10.02707 -10.02640  -0.84764  -0.84437
  Beta  occ. eigenvalues --   -0.72971  -0.66592  -0.64491  -0.60822  -0.56247
  Beta  occ. eigenvalues --   -0.52735  -0.48047  -0.47690  -0.41191  -0.37293
  Beta  occ. eigenvalues --   -0.36831  -0.33964  -0.32235  -0.29490  -0.29299
  Beta  occ. eigenvalues --   -0.28254  -0.27630  -0.26065  -0.25495  -0.25312
  Beta  occ. eigenvalues --   -0.24057  -0.21668  -0.21235  -0.20860  -0.20413
  Beta  occ. eigenvalues --   -0.11649  -0.11606  -0.10669  -0.09443  -0.08946
  Beta virt. eigenvalues --    0.05232   0.08454   0.09872   0.10327   0.10573
  Beta virt. eigenvalues --    0.11692   0.12020   0.12690   0.13646   0.13917
  Beta virt. eigenvalues --    0.14028   0.16643   0.17104   0.18001   0.18398

 Mulliken charges and spin densities:
               1          2
     1  C    0.426714   0.035487
     2  C   -0.488004   0.025573
     3  C   -0.574538   0.028570
     4  C    0.249085   0.036481
     5  C    0.169404   0.028718
     6  C    0.803692   0.008768
     7  C   -0.522775   0.063856
     8  C    0.041151   0.111003
     9  C   -0.106452   0.122069
    10  C   -0.795990   0.066872
    11  O   -0.402999   0.245773
    12  O   -0.380515   0.249099
    13  H    0.155251  -0.002096
    14  C   -0.471996   0.008172
    15  H    0.130936  -0.002490
    16  H    0.065441  -0.003069
    17  H    0.139035  -0.010279
    18  H    0.143633  -0.011066
    19  H    0.157965  -0.000411
    20  H    0.157969  -0.000409
    21  H    0.102992  -0.000620
 Sum of Mulliken charges =  -1.00000   1.00000

 Dipole moment (field-independent basis, Debye):
    X=            -18.4065    Y=             17.6634    Z=             -5.8759  Tot=             26.1787
 Quadrupole moment (field-independent basis, Debye-Ang):
   XX=           -155.3870   YY=           -164.1700   ZZ=           -104.8703
   XY=             70.7072   XZ=            -23.1754   YZ=             37.1442

  Exact polarizability: 166.705 -34.728 149.960 -38.180 -43.479 158.645
 Approx polarizability: 257.782 -62.045 260.558 -49.307 -88.987 260.883

                      1                      2                      3
                      A                      A                      A
 Frequencies --     71.7602                95.8994               184.2097
 Red. masses --      4.5039                 5.8710                 2.1974
 Frc consts  --      0.0137                 0.0318                 0.0439
 IR Inten    --      2.0663                 7.0601                 1.5801

                      4                      5                      6
                      A                      A                      A
 Frequencies --    203.6601               236.0254               273.5679
 Red. masses --      1.5189                 2.9956                 5.7083
 Frc consts  --      0.0371                 0.0983                 0.2517
 IR Inten    --      0.0638                 1.3555                 1.9338

                      7                      8                      9
                      A                      A                      A
 Frequencies --    328.8291               362.5227               372.3523
 Red. masses --      5.1961                 3.9604                 9.5379
 Frc consts  --      0.3310                 0.3067                 0.7791
 IR Inten    --      0.0113                 5.3807                 5.5839

                     10                     11                     12
                      A                      A                      A
 Frequencies --    456.1456               461.4503               481.8397
 Red. masses --      5.7117                 8.0756                 4.0707
 Frc consts  --      0.7002                 1.0131                 0.5568
 IR Inten    --      1.1423                 1.3987                 0.0591

                     13                     14                     15
                      A                      A                      A
 Frequencies --    489.3791               530.1044               614.1197
 Red. masses --      3.3118                 6.4965                 4.6377
 Frc consts  --      0.4673                 1.0756                 1.0305
 IR Inten    --      0.2464                 0.5420                 1.4312

                     16                     17                     18
                      A                      A                      A
 Frequencies --    626.2457               638.8715               673.4184
 Red. masses --      5.4111                 2.3277                 4.2391
 Frc consts  --      1.2503                 0.5598                 1.1326
 IR Inten    --      0.3030                 0.4487                 1.6420

                     19                     20                     21
                      A                      A                      A
 Frequencies --    765.4054               767.3039               795.0173
 Red. masses --      6.7290                 1.3860                 5.3760
 Frc consts  --      2.3227                 0.4808                 2.0020
 IR Inten    --     28.2551                63.4537                 5.0805

                     22                     23                     24
                      A                      A                      A
 Frequencies --    804.7208               831.2352               893.0925
 Red. masses --      4.0733                 2.0345                 1.3604
 Frc consts  --      1.5541                 0.8282                 0.6393
 IR Inten    --      8.4544                23.0357                 0.0023

                     25                     26                     27
                      A                      A                      A
 Frequencies --    907.4287               931.9312               980.1822
 Red. masses --      4.4435                 1.2840                 1.2943
 Frc consts  --      2.1558                 0.6570                 0.7326
 IR Inten    --     14.3421                 0.0075                 1.4731

                     28                     29                     30
                      A                      A                      A
 Frequencies --   1022.1872              1053.9447              1054.8587
 Red. masses --      1.5688                 1.5259                 3.2143
 Frc consts  --      0.9658                 0.9987                 2.1073
 IR Inten    --      1.1893                 1.5488                24.9615

                     31                     32                     33
                      A                      A                      A
 Frequencies --   1103.5386              1129.6306              1167.9477
 Red. masses --      1.7033                 2.1379                 1.4857
 Frc consts  --      1.2221                 1.6073                 1.1940
 IR Inten    --      2.4129                15.9261                13.8595

                     34                     35                     36
                      A                      A                      A
 Frequencies --   1174.4499              1228.2193              1251.1510
 Red. masses --      1.8206                 2.6932                 2.2908
 Frc consts  --      1.4795                 2.3937                 2.1128
 IR Inten    --     11.2040                17.2496                 9.1552

                     37                     38                     39
                      A                      A                      A
 Frequencies --   1307.0207              1332.6261              1407.7754
 Red. masses --      2.0883                 7.0498                 2.5368
 Frc consts  --      2.1019                 7.3764                 2.9621
 IR Inten    --      2.8564                 3.7458                10.5810

                     40                     41                     42
                      A                      A                      A
 Frequencies --   1415.1330              1422.7682              1454.7129
 Red. masses --      1.2675                 3.4765                 2.5549
 Frc consts  --      1.4955                 4.1463                 3.1855
 IR Inten    --      8.0706                66.1890               156.0412

                     43                     44                     45
                      A                      A                      A
 Frequencies --   1463.6494              1478.8992              1497.5403
 Red. masses --      1.0460                 1.6289                 3.0302
 Frc consts  --      1.3203                 2.0991                 4.0038
 IR Inten    --      4.8352                20.9422                 1.5960

                     46                     47                     48
                      A                      A                      A
 Frequencies --   1542.3513              1558.5840              1616.2716
 Red. masses --      4.9734                 5.7709                 5.7606
 Frc consts  --      6.9706                 8.2595                 8.8664
 IR Inten    --    423.1414               108.1899                 6.1673

                     49                     50                     51
                      A                      A                      A
 Frequencies --   1628.5662              3010.8436              3085.7641
 Red. masses --      7.1723                 1.0450                 1.0911
 Frc consts  --     11.2078                 5.5813                 6.1215
 IR Inten    --      3.3970                90.1301                16.9931

                     52                     53                     54
                      A                      A                      A
 Frequencies --   3094.6798              3125.1148              3132.6897
 Red. masses --      1.0989                 1.0850                 1.0849
 Frc consts  --      6.2005                 6.2432                 6.2729
 IR Inten    --     15.7513                27.8736                23.1238

                     55                     56                     57
                      A                      A                      A
 Frequencies --   3146.6047              3154.7507              3183.7371
 Red. masses --      1.0921                 1.0938                 1.0920
 Frc consts  --      6.3707                 6.4141                 6.5214
 IR Inten    --     64.8229                41.9728                15.4454

 - Thermochemistry -
 -------------------
 Temperature   298.150 Kelvin.  Pressure   1.00000 Atm.
 Atom     1 has atomic number  6 and mass  12.00000

 Molecular mass:   172.05243 amu.
 Principal axes and moments of inertia in atomic units:
                           1         2         3
     Eigenvalues --  1583.024722020.943413593.12830
           X           -0.48279   0.71132   0.51082
           Y           -0.36270  -0.69334   0.62268
           Z            0.79710   0.11535   0.59273
 This molecule is an asymmetric top.
 Rotational symmetry number  1.
 Warning -- assumption of classical behavior for rotation
           may cause significant error
 Rotational temperatures (Kelvin)      0.05471     0.04286     0.02411
 Rotational constants (GHZ):           1.14006     0.89302     0.50228
 Zero-point vibrational energy     412847.6 (Joules/Mol)
                                   98.67294 (Kcal/Mol)
 Warning -- explicit consideration of  15 degrees of freedom as
           vibrations may cause significant error
 Vibrational temperatures:    103.25   137.98   265.04   293.02   339.59
          (Kelvin)            393.60   473.11   521.59   535.73   656.29
                              663.92   693.26   704.11   762.70   883.58
                              901.03   919.19   968.90  1101.25  1103.98
                             1143.85  1157.81  1195.96  1284.96  1305.59
                             1340.84  1410.26  1470.70  1516.39  1517.71
                             1587.75  1625.29  1680.42  1689.77  1767.13
                             1800.13  1880.51  1917.35  2025.47  2036.06
                             2047.05  2093.01  2105.86  2127.81  2154.63
                             2219.10  2242.45  2325.45  2343.14  4331.93
                             4439.73  4452.55  4496.34  4507.24  4527.26
                             4538.98  4580.69

 Zero-point correction=                           0.157245 (Hartree/Particle)
 Thermal correction to Energy=                    0.167414
 Thermal correction to Enthalpy=                  0.168358
 Thermal correction to Gibbs Free Energy=         0.120956
 Sum of electronic and zero-point Energies=           -574.496602
 Sum of electronic and thermal Energies=              -574.486434
 Sum of electronic and thermal Enthalpies=            -574.485490
 Sum of electronic and thermal Free Energies=         -574.532891

                     E (Thermal)             CV                S
                      KCal/Mol        Cal/Mol-Kelvin    Cal/Mol-Kelvin
 Total                  105.054             40.667             99.765
 Electronic               0.000              0.000              1.377
 Translational            0.889              2.981             41.335
 Rotational               0.889              2.981             30.820
 Vibrational            103.276             34.705             26.232
 Vibration     1          0.598              1.967              4.104
 Vibration     2          0.603              1.952              3.536
 Vibration     3          0.631              1.861              2.285
 Vibration     4          0.639              1.835              2.100
 Vibration     5          0.655              1.786              1.833
 Vibration     6          0.676              1.722              1.574
 Vibration     7          0.712              1.618              1.266
 Vibration     8          0.736              1.549              1.111
 Vibration     9          0.744              1.529              1.070
 Vibration    10          0.814              1.347              0.777
 Vibration    11          0.819              1.336              0.762
 Vibration    12          0.838              1.290              0.705
 Vibration    13          0.845              1.274              0.685
 Vibration    14          0.885              1.183              0.587
 Vibration    15          0.974              1.002              0.426

 Optimization completed.
    -- Stationary point found.
 Normal termination of Gaussian 16 at Sun Jan  7 21:14:29 2024.
