 Q-Chem 5.4, Q-Chem, Inc., Pleasanton, CA (2021)
 Q-Chem 5.4.0 for Intel X86 EM64T Linux

User input:
--------------------------------------------------------------
$molecule
-1 2
C                  5.7618090000     -5.2832010000      1.2484080000
C                  6.7319010000     -5.1537970000      0.2765100000
C                  6.6141250000     -4.1401580000     -0.6878170000
C                  4.6580120000     -4.4109860000      1.2825960000
C                  4.5310050000     -3.3756280000      0.3042550000
C                  5.5426370000     -3.2532830000     -0.6965980000
C                  3.6590020000     -4.6131700000      2.3553040000
C                  2.5524230000     -3.7023260000      2.3525690000
C                  2.4210360000     -2.7036910000      1.4173140000
C                  3.3634090000     -2.4664550000      0.3560480000
O                  3.7849050000     -5.5317470000      3.2110600000
O                  3.1833470000     -1.5299310000     -0.4726440000
H                  5.8111300000     -6.0504020000      2.0123130000
C                  5.5115850000     -2.1973390000     -1.7802120000
H                  7.5832870000     -5.8282500000      0.2523840000
H                  7.3795360000     -4.0402470000     -1.4530530000
H                  1.8096860000     -3.8373100000      3.1341920000
H                  1.5700710000     -2.0284130000      1.4416620000
H                  5.4960870000     -1.1896940000     -1.3605530000
H                  4.6082100000     -2.2700260000     -2.3883520000
H                  6.3910940000     -2.3063570000     -2.4246970000
$end

$rem
BASIS  =  6-311++G(d,p)
GUI  =  2
JOB_TYPE  =  SP
METHOD  =  B3LYP
SCF_CONVERGENCE  = 8
SOLVENT_METHOD = sm12
$end

$smx
solvent dimethylformamide
charges CM5
$end

--------------------------------------------------------------

             Standard Nuclear Orientation (Angstroms)
    I     Atom           X                Y                Z
 ----------------------------------------------------------------
    1      C       5.7618090000    -5.2832010000     1.2484080000
    2      C       6.7319010000    -5.1537970000     0.2765100000
    3      C       6.6141250000    -4.1401580000    -0.6878170000
    4      C       4.6580120000    -4.4109860000     1.2825960000
    5      C       4.5310050000    -3.3756280000     0.3042550000
    6      C       5.5426370000    -3.2532830000    -0.6965980000
    7      C       3.6590020000    -4.6131700000     2.3553040000
    8      C       2.5524230000    -3.7023260000     2.3525690000
    9      C       2.4210360000    -2.7036910000     1.4173140000
   10      C       3.3634090000    -2.4664550000     0.3560480000
   11      O       3.7849050000    -5.5317470000     3.2110600000
   12      O       3.1833470000    -1.5299310000    -0.4726440000
   13      H       5.8111300000    -6.0504020000     2.0123130000
   14      C       5.5115850000    -2.1973390000    -1.7802120000
   15      H       7.5832870000    -5.8282500000     0.2523840000
   16      H       7.3795360000    -4.0402470000    -1.4530530000
   17      H       1.8096860000    -3.8373100000     3.1341920000
   18      H       1.5700710000    -2.0284130000     1.4416620000
   19      H       5.4960870000    -1.1896940000    -1.3605530000
   20      H       4.6082100000    -2.2700260000    -2.3883520000
   21      H       6.3910940000    -2.3063570000    -2.4246970000
 ----------------------------------------------------------------

   16    -574.6513051992      6.86e-09  Convergence criterion met
 Total energy in the final basis set =     -574.7376371947

                    Orbital Energies (a.u.)
 --------------------------------------------------------------

 Alpha MOs
 -- Occupied --
-19.0770 -19.0765 -10.2263 -10.2240 -10.1945 -10.1857 -10.1830 -10.1822
-10.1796 -10.1765 -10.1697 -10.1690 -10.1658  -1.0010  -0.9987  -0.8670
 -0.8111  -0.7796  -0.7477  -0.6983  -0.6729  -0.6208  -0.6149  -0.5512
 -0.5116  -0.5057  -0.4782  -0.4618  -0.4315  -0.4310  -0.4216  -0.4114
 -0.4036  -0.3980  -0.3952  -0.3757  -0.3753  -0.3550  -0.3528  -0.3463
 -0.2809  -0.2614  -0.2573  -0.2425  -0.2365  -0.1568

 Beta MOs
 -- Occupied --
-19.0703 -19.0695 -10.2252 -10.2227 -10.1945 -10.1853 -10.1826 -10.1817
-10.1792 -10.1764 -10.1681 -10.1674 -10.1658  -0.9893  -0.9867  -0.8652
 -0.8055  -0.7786  -0.7455  -0.6951  -0.6657  -0.6176  -0.6130  -0.5490
 -0.5090  -0.5041  -0.4754  -0.4601  -0.4291  -0.4262  -0.4188  -0.4096
 -0.3935  -0.3932  -0.3927  -0.3734  -0.3534  -0.3514  -0.3449  -0.3427
 -0.2557  -0.2528  -0.2471  -0.2362  -0.2303

          Ground-State Mulliken Net Atomic Charges

     Atom                 Charge (a.u.)    Spin (a.u.)
  --------------------------------------------------------
      1 C                     0.634835       0.047919
      2 C                     0.652719       0.018322
      3 C                     0.977861       0.028371
      4 C                    -0.850597       0.023790
      5 C                    -1.361268       0.021385
      6 C                     0.071467       0.013458
      7 C                    -1.248289       0.067174
      8 C                    -0.087544       0.109516
      9 C                    -0.144253       0.131944
     10 C                    -1.522528       0.060425
     11 O                    -0.350718       0.245122
     12 O                    -0.294210       0.252815
     13 H                     0.136436      -0.002680
     14 C                     0.765959       0.009271
     15 H                     0.380963      -0.001830
     16 H                     0.278758      -0.002787
     17 H                     0.220156      -0.009942
     18 H                     0.231091      -0.011330
     19 H                     0.126946      -0.000288
     20 H                     0.126830      -0.000287
     21 H                     0.255384      -0.000368
  --------------------------------------------------------
  Sum of atomic charges =    -1.000000

                    Cartesian Multipole Moments
 -----------------------------------------------------------------
    Charge (ESU x 10^10)
                -4.8032
    Dipole Moment (Debye)
         X     -17.4126      Y      17.5883      Z      -6.6528
       Tot      25.6283
    Quadrupole Moments (Debye-Ang)
        XX    -144.1668     XY      65.8651     YY    -163.2032
        XZ     -27.3448     YZ      39.9186     ZZ    -105.0123

 Total job time:  316.53s(wall), 2439.83s(cpu)
        *  Thank you very much for using Q-Chem.  Have a nice day.  *
