 Q-Chem 5.4, Q-Chem, Inc., Pleasanton, CA (2021)
 Q-Chem 5.4.0 for Intel X86 EM64T Linux

User input:
--------------------------------------------------------------
$molecule
0 1
C                 -7.1499260000      3.9330100000      0.8787830000
C                 -8.1278190000      3.1966280000      0.2172520000
C                 -7.7926660000      2.4483360000     -0.9127020000
C                 -5.8350700000      3.9188230000      0.4071860000
C                 -5.4948220000      3.1671860000     -0.7294720000
C                 -6.4816210000      2.4332700000     -1.3853200000
C                 -4.7875750000      4.6938820000      1.0965090000
C                 -3.3992060000      4.6405330000      0.5548230000
C                 -3.0484680000      3.9308780000     -0.5459490000
C                 -4.0841920000      3.1440780000     -1.2478500000
O                 -4.9858240000      5.3824770000      2.0913110000
O                 -3.8067950000      2.4833300000     -2.2391590000
O                 -2.5139620000      5.3699840000      1.2534030000
C                 -1.6379050000      3.8873260000     -1.0624860000
C                 -0.8283800000      2.7029880000     -0.4918380000
C                  0.6062960000      2.6603610000     -1.0277070000
C                  1.4284140000      1.4934550000     -0.4691350000
C                  2.8656970000      1.4479560000     -1.0002370000
C                  3.6887560000      0.2806730000     -0.4437030000
C                  5.1257710000      0.2355470000     -0.9752140000
C                  5.9485760000     -0.9321060000     -0.4185330000
C                  7.3859480000     -0.9686790000     -0.9542430000
C                  8.1939260000     -2.1375000000     -0.3892710000
S                  9.9033860000     -2.1281110000     -1.0627980000
C                 10.5857090000     -3.6059070000     -0.2107650000
C                 12.0453660000     -3.8304790000     -0.6070110000
C                 12.6611290000     -5.0552340000      0.0822190000
C                 14.1254210000     -5.2940940000     -0.3039480000
C                 14.7482410000     -6.5152170000      0.3819760000
C                 16.2126430000     -6.7547650000     -0.0026660000
C                 16.8367040000     -7.9751140000      0.6836850000
C                 18.3010940000     -8.2146910000      0.2997690000
C                 18.9265220000     -9.4345670000      0.9858190000
C                 20.3895200000     -9.6654000000      0.5961140000
H                 -7.3855500000      4.5215020000      1.7570430000
H                 -9.1491290000      3.2045870000      0.5799620000
H                 -8.5559940000      1.8751990000     -1.4266740000
H                 -6.2047200000      1.8584970000     -2.2603410000
H                 -3.0193460000      5.7877590000      1.9765680000
H                 -1.1346480000      4.8238150000     -0.8087230000
H                 -1.6703210000      3.8016420000     -2.1514480000
H                 -1.3410100000      1.7679060000     -0.7411370000
H                 -0.8099550000      2.7745050000      0.6015890000
H                  1.1104790000      3.6057360000     -0.7891690000
H                  0.5807790000      2.5947620000     -2.1227990000
H                  0.9239070000      0.5486790000     -0.7089400000
H                  1.4495630000      1.5575380000      0.6264930000
H                  3.3700720000      2.3929120000     -0.7602410000
H                  2.8443280000      1.3852210000     -2.0958710000
H                  3.1842770000     -0.6642060000     -0.6839070000
H                  3.7100650000      0.3432610000      0.6520700000
H                  5.6305130000      1.1800120000     -0.7348240000
H                  5.1048020000      0.1727540000     -2.0707180000
H                  5.4458370000     -1.8770570000     -0.6609430000
H                  5.9703090000     -0.8694720000      0.6769560000
H                  7.8911480000     -0.0276350000     -0.7092950000
H                  7.3668120000     -1.0368610000     -2.0477520000
H                  7.7211460000     -3.0889800000     -0.6503430000
H                  8.2484790000     -2.0708740000      0.7014150000
H                  9.9794690000     -4.4756310000     -0.4810420000
H                 10.5033940000     -3.4545570000      0.8696660000
H                 12.6297860000     -2.9379750000     -0.3566370000
H                 12.1109920000     -3.9513010000     -1.6941570000
H                 12.0714970000     -5.9470020000     -0.1658990000
H                 12.5892830000     -4.9342740000      1.1706560000
H                 14.7141110000     -4.4010980000     -0.0578430000
H                 14.1970010000     -5.4143950000     -1.3925080000
H                 14.1590970000     -7.4081860000      0.1357780000
H                 14.6755800000     -6.3947110000      1.4706920000
H                 16.8014890000     -5.8614530000      0.2428140000
H                 16.2852940000     -6.8756740000     -1.0912900000
H                 16.2479510000     -8.8685500000      0.4380190000
H                 16.7637480000     -7.8541790000      1.7723830000
H                 18.8907610000     -7.3216420000      0.5451760000
H                 18.3750860000     -8.3363010000     -0.7889000000
H                 18.3382640000    -10.3272080000      0.7401790000
H                 18.8534040000     -9.3131950000      2.0735320000
H                 20.4911710000     -9.8253100000     -0.4820440000
H                 20.8051140000    -10.5414750000      1.1018830000
H                 21.0102060000     -8.8035630000      0.8612810000
$end
$rem
MAX_SCF_CYCLES=200
BASIS  =  6-311++G(d,p)
GUI  =  2
JOB_TYPE  =  SP
THRESH = 14
SCF_CONVERGENCE  = 6
METHOD  =  B3LYP
SOLVENT_METHOD = COSMO
$end
$solvent
dielectric 37.219
opticaldielectric 1.43
$end

--------------------------------------------------------------

             Standard Nuclear Orientation (Angstroms)
    I     Atom           X                Y                Z
 ----------------------------------------------------------------
    1      C      12.5119942202     1.1817519758     1.3232567225
    2      C      13.0574746631     2.3147785795     0.7275569364
    3      C      12.4335395262     2.8888148415    -0.3816102321
    4      C      11.3399726798     0.6241367833     0.8066503849
    5      C      10.7100645570     1.1991983382    -0.3092520549
    6      C      11.2645275949     2.3337609475    -0.8990655726
    7      C      10.7496778065    -0.5762886730     1.4260526076
    8      C       9.4952689914    -1.1286181709     0.8384907225
    9      C       8.8746130694    -0.5975689115    -0.2436826787
   10      C       9.4492505632     0.6086437775    -0.8755736168
   11      O      11.2262469308    -1.1520179295     2.3979139414
   12      O       8.9147536394     1.1235764014    -1.8478842563
   13      O       9.0287256303    -2.2154956561     1.4747330832
   14      C       7.6045576222    -1.1699924209    -0.8073188317
   15      C       6.3385815299    -0.5123127174    -0.2170745558
   16      C       5.0477053503    -1.0954532108    -0.8009013496
   17      C       3.7785724118    -0.4583527458    -0.2238789237
   18      C       2.4840097830    -1.0403684442    -0.8029188552
   19      C       1.2138930702    -0.4032507268    -0.2279489752
   20      C      -0.0802563271    -0.9854555483    -0.8074032810
   21      C      -1.3503164955    -0.3479012741    -0.2322623867
   22      C      -2.6408494065    -0.9376593251    -0.8162754873
   23      C      -3.8983334786    -0.2927919696    -0.2322855547
   24      S      -5.4086980758    -1.0393412089    -0.9653907869
   25      C      -6.6980690398    -0.0777245631    -0.0775721844
   26      C      -8.0955377684    -0.5175878578    -0.5153432067
   27      C      -9.2087114833     0.2575101615     0.2017998865
   28      C     -10.6169215404    -0.1722649312    -0.2254797846
   29      C     -11.7346930254     0.5965804571     0.4879636564
   30      C     -13.1433325896     0.1672874769     0.0622312927
   31      C     -14.2618639492     0.9348596457     0.7760254310
   32      C     -15.6705151553     0.5055595823     0.3510196176
   33      C     -16.7900460574     1.2721078653     1.0644455282
   34      C     -18.1934156418     0.8359601466     0.6333469477
   35      H      12.9779084330     0.7181976429     2.1842000759
   36      H      13.9664949705     2.7508188886     1.1253595702
   37      H      12.8600610663     3.7716228699    -0.8442680258
   38      H      10.7680204385     2.7662493750    -1.7587947855
   39      H       9.6594819873    -2.3967996423     2.1973615063
   40      H       7.5779444405    -2.2447796972    -0.6103443042
   41      H       7.6083145262    -1.0215586922    -1.8899933425
   42      H       6.3741282127     0.5652289512    -0.4093198175
   43      H       6.3408049830    -0.6420389064     0.8711363329
   44      H       5.0244921107    -2.1777655671    -0.6195291508
   45      H       5.0545076396    -0.9676968975    -1.8907696388
   46      H       3.8023621834     0.6236399617    -0.4065295988
   47      H       3.7749672647    -0.5828108313     0.8667409979
   48      H       2.4604168982    -2.1224717127    -0.6200802523
   49      H       2.4884227757    -0.9170103656    -1.8935927231
   50      H       1.2376161917     0.6788420558    -0.4109947916
   51      H       1.2094650700    -0.5264581363     0.8628718744
   52      H      -0.1044040140    -2.0673086761    -0.6241638912
   53      H      -0.0762277001    -0.8622337565    -1.8979590265
   54      H      -1.3281485228     0.7335844891    -0.4175692338
   55      H      -1.3550978173    -0.4713265507     0.8582580535
   56      H      -2.6670152814    -2.0169152415    -0.6283595839
   57      H      -2.6409248311    -0.8105755884    -1.9046810288
   58      H      -3.9055862849     0.7819304380    -0.4370118392
   59      H      -3.9304852156    -0.4343723582     0.8521185506
   60      H      -6.5491896697     0.9851177278    -0.2901695233
   61      H      -6.5696918552    -0.2322289974     0.9979097567
   62      H      -8.2143859423    -1.5897803064    -0.3227926137
   63      H      -8.1951059357    -0.3823490349    -1.5982041367
   64      H      -9.0849138903     1.3312874661     0.0116550489
   65      H      -9.1035549561     0.1248956912     1.2861631925
   66      H     -10.7392970825    -1.2466026706    -0.0373625568
   67      H     -10.7215404392    -0.0401101670    -1.3099837749
   68      H     -11.6118995393     1.6711045661     0.2997684336
   69      H     -11.6290198894     0.4647242707     1.5726530037
   70      H     -13.2656958243    -0.9073691588     0.2497058926
   71      H     -13.2491808673     0.2995020570    -1.0223491858
   72      H     -14.1396375014     2.0095943835     0.5883669550
   73      H     -14.1557330510     0.8027560670     1.8606894639
   74      H     -15.7937283364    -0.5692307019     0.5384032883
   75      H     -15.7778758283     0.6377935480    -0.7336240400
   76      H     -16.6679001984     2.3459095220     0.8767627368
   77      H     -16.6835600517     1.1397406258     2.1481136597
   78      H     -18.3429346950     0.9892121120    -0.4401923831
   79      H     -18.9676820827     1.4009737735     1.1599389526
   80      H     -18.3586811652    -0.2261305407     0.8406591322
 ----------------------------------------------------------------

   10   -1795.2249581716      7.68e-07  Convergence criterion met
 Total energy in the final basis set =    -1795.2249581716
    6   -1795.2450476319      7.04e-07  Convergence criterion met
 Total energy in the final basis set =    -1795.2450476319

                    Orbital Energies (a.u.)
 --------------------------------------------------------------

 Alpha MOs
 -- Occupied --
-88.8357 -19.1782 -19.1501 -19.1304 -10.2942 -10.2817 -10.2673 -10.2105
-10.2092 -10.2036 -10.2004 -10.1982 -10.1966 -10.1964 -10.1924 -10.1924
-10.1751 -10.1674 -10.1674 -10.1661 -10.1617 -10.1617 -10.1599 -10.1587
-10.1586 -10.1585 -10.1581 -10.1576 -10.1573 -10.1573 -10.1568 -10.1566
-10.1564 -10.1521  -7.9221  -5.8857  -5.8826  -5.8758  -1.1085  -1.0677
 -1.0642  -0.8924  -0.8438  -0.8225  -0.8126  -0.8075  -0.8004  -0.7911
 -0.7810  -0.7792  -0.7691  -0.7534  -0.7380  -0.7196  -0.7031  -0.6892
 -0.6730  -0.6570  -0.6488  -0.6327  -0.6164  -0.6049  -0.5988  -0.5850
 -0.5807  -0.5790  -0.5740  -0.5733  -0.5717  -0.5714  -0.5686  -0.5426
 -0.5186  -0.4977  -0.4870  -0.4849  -0.4789  -0.4751  -0.4727  -0.4710
 -0.4688  -0.4577  -0.4519  -0.4518  -0.4452  -0.4403  -0.4354  -0.4311
 -0.4280  -0.4264  -0.4246  -0.4210  -0.4201  -0.4125  -0.4099  -0.4049
 -0.3994  -0.3963  -0.3927  -0.3902  -0.3860  -0.3796  -0.3777  -0.3728
 -0.3694  -0.3655  -0.3647  -0.3603  -0.3566  -0.3477  -0.3423  -0.3420
 -0.3383  -0.3335  -0.3312  -0.3279  -0.3275  -0.3251  -0.3225  -0.3210
 -0.3207  -0.3187  -0.3182  -0.3170  -0.3118  -0.3057  -0.3020  -0.2936
 -0.2895  -0.2800  -0.2799  -0.2563  -0.2266

          Ground-State Mulliken Net Atomic Charges

     Atom                 Charge (a.u.)
  ----------------------------------------
      1 C                     0.156209
      2 C                    -0.400088
      3 C                    -0.415887
      4 C                     0.505122
      5 C                    -0.153759
      6 C                     0.160399
      7 C                    -0.758522
      8 C                    -0.443955
      9 C                     1.828823
     10 C                    -0.747363
     11 O                    -0.331887
     12 O                    -0.297613
     13 O                    -0.238964
     14 C                    -0.349520
     15 C                    -0.732647
     16 C                    -0.282569
     17 C                    -0.102923
     18 C                    -0.112570
     19 C                    -0.275949
     20 C                    -0.122218
     21 C                    -0.337620
     22 C                    -0.211699
     23 C                    -0.811379
     24 S                    -0.412854
     25 C                    -0.722007
     26 C                    -0.009233
     27 C                     0.011585
     28 C                     0.004217
     29 C                     0.016612
     30 C                    -0.009249
     31 C                    -0.268361
     32 C                    -0.460109
     33 C                    -0.284909
     34 C                    -0.707890
     35 H                     0.205521
     36 H                     0.230143
     37 H                     0.226103
     38 H                     0.204411
     39 H                     0.324898
     40 H                     0.239711
     41 H                     0.225147
     42 H                     0.184591
     43 H                     0.182410
     44 H                     0.124141
     45 H                     0.127284
     46 H                     0.133415
     47 H                     0.133212
     48 H                     0.137656
     49 H                     0.137997
     50 H                     0.135821
     51 H                     0.136107
     52 H                     0.137902
     53 H                     0.137906
     54 H                     0.145234
     55 H                     0.144870
     56 H                     0.133801
     57 H                     0.134305
     58 H                     0.191108
     59 H                     0.190913
     60 H                     0.199807
     61 H                     0.199677
     62 H                     0.138760
     63 H                     0.138977
     64 H                     0.143382
     65 H                     0.143001
     66 H                     0.137872
     67 H                     0.137835
     68 H                     0.133782
     69 H                     0.133430
     70 H                     0.133185
     71 H                     0.133052
     72 H                     0.132869
     73 H                     0.132631
     74 H                     0.129346
     75 H                     0.129240
     76 H                     0.136306
     77 H                     0.136181
     78 H                     0.145364
     79 H                     0.154041
     80 H                     0.145435
  ----------------------------------------
  Sum of atomic charges =     0.000000

                    Cartesian Multipole Moments
 -----------------------------------------------------------------
    Charge (ESU x 10^10)
                 0.0000
    Dipole Moment (Debye)
         X       2.7534      Y       3.2727      Z       2.8240
       Tot       5.1251
    Quadrupole Moments (Debye-Ang)
        XX    -161.4495     XY      15.5803     YY    -218.1510
        XZ      -1.8680     YZ      -0.8994     ZZ    -230.8893

 Total job time:  702.82s(wall), 5334.75s(cpu)
        *  Thank you very much for using Q-Chem.  Have a nice day.  *
