 Gaussian 16, Revision A.03,
 Gaussian 16:  ES64L-G16RevA.03 25-Dec-2016

 ----------------------------------------------------------------------
 #P UB3LYP/6-311++G(d,p) nosym opt freq SCRF=(PCM,Solvent=n,n-DiMethylF
 ormamide)
 ----------------------------------------------------------------------

 -------
 Reduced
 -------
 Symbolic Z-matrix:
 Charge = -2 Multiplicity = 1

 SCF Done:  E(UB3LYP) =  -669.502511142     A.U. after   18 cycles
 SCF Done:  E(UB3LYP) =  -669.505404683     A.U. after   14 cycles
 SCF Done:  E(UB3LYP) =  -669.505974603     A.U. after   14 cycles
 SCF Done:  E(UB3LYP) =  -669.505987523     A.U. after   12 cycles
 SCF Done:  E(UB3LYP) =  -669.506015774     A.U. after   12 cycles
 SCF Done:  E(UB3LYP) =  -669.506034235     A.U. after   12 cycles
 SCF Done:  E(UB3LYP) =  -669.506036297     A.U. after   12 cycles
 SCF Done:  E(UB3LYP) =  -669.506055416     A.U. after   12 cycles
 SCF Done:  E(UB3LYP) =  -669.506062514     A.U. after   12 cycles
 SCF Done:  E(UB3LYP) =  -669.506062765     A.U. after   11 cycles
 SCF Done:  E(UB3LYP) =  -669.506064503     A.U. after   12 cycles
 SCF Done:  E(UB3LYP) =  -669.506064543     A.U. after   10 cycles
 SCF Done:  E(UB3LYP) =  -669.506064638     A.U. after   10 cycles
 Optimization completed.
    -- Stationary point found.
 Normal termination of Gaussian 16 at Sun Feb 11 16:50:32 2024.

 ----------------------------------------------------------------------
 #P Geom=AllCheck Guess=TCheck SCRF=Check GenChk UB3LYP/6-311++G(d,p) F
 req
 ----------------------------------------------------------------------

 Structure from the checkpoint file:  "323-an.chk"
 -------
 Reduced
 -------
 Charge = -2 Multiplicity = 1

                          Input orientation:
 ---------------------------------------------------------------------
 Center     Atomic      Atomic             Coordinates (Angstroms)
 Number     Number       Type             X           Y           Z
 ---------------------------------------------------------------------
      1          6           0       -1.641683    2.853124   -0.797314
      2          6           0       -2.856560    2.204488   -0.803201
      3          6           0       -2.912822    0.805215   -0.553893
      4          6           0       -0.410887    2.178246   -0.540217
      5          6           0       -0.478142    0.751213   -0.267346
      6          6           0       -1.750085    0.112065   -0.294619
      7          6           0        0.828163    2.918383   -0.568276
      8          6           0        2.047467    2.180662   -0.267868
      9          6           0        1.918468    0.788018    0.015742
     10          6           0        0.726154    0.065472    0.015526
     11          8           0        0.851170    4.191021   -0.847435
     12          8           0        3.220286    2.756039   -0.250466
     13          1           0       -1.588985    3.918755   -0.991505
     14          1           0       -3.770989    2.756698   -1.000265
     15          1           0       -3.866761    0.286735   -0.570560
     16          1           0       -1.782605   -0.955920   -0.107278
     17          1           0        2.849038    0.271864    0.243394
     18          7           0        0.683790   -1.350063    0.321728
     19          6           0        1.756672   -2.148163   -0.260355
     20          6           0        0.528574   -1.632170    1.748472
     21          1           0        1.838341   -1.936204   -1.328378
     22          1           0        1.524625   -3.211153   -0.136387
     23          1           0        2.745360   -1.972601    0.199401
     24          1           0       -0.320145   -1.074003    2.147753
     25          1           0        1.424489   -1.361589    2.336821
     26          1           0        0.337346   -2.700320    1.898566
 ---------------------------------------------------------------------

 SCF Done:  E(UB3LYP) =  -669.506064638     A.U. after    1 cycles

 Alpha  occ. eigenvalues --  -19.01222 -19.01213 -14.29215 -10.17448 -10.17426
 Alpha  occ. eigenvalues --  -10.16183 -10.16095 -10.15538 -10.14516 -10.14380
 Alpha  occ. eigenvalues --  -10.14335 -10.14038 -10.13918 -10.13138 -10.12098
 Alpha  occ. eigenvalues --   -0.93204  -0.90672  -0.90168  -0.82231  -0.76258
 Alpha  occ. eigenvalues --   -0.72169  -0.69540  -0.68624  -0.66005  -0.60462
 Alpha  occ. eigenvalues --   -0.58176  -0.55834  -0.52543  -0.48097  -0.46734
 Alpha  occ. eigenvalues --   -0.45876  -0.43992  -0.42941  -0.41504  -0.40096
 Alpha  occ. eigenvalues --   -0.39385  -0.38217  -0.37427  -0.36566  -0.36350
 Alpha  occ. eigenvalues --   -0.35498  -0.35114  -0.33781  -0.32418  -0.31658
 Alpha  occ. eigenvalues --   -0.29925  -0.28121  -0.26095  -0.22394  -0.21040
 Alpha  occ. eigenvalues --   -0.19637  -0.18358  -0.18040  -0.11313
 Alpha virt. eigenvalues --   -0.00768  -0.00145   0.00851   0.01684   0.02114
 Alpha virt. eigenvalues --    0.02701   0.02965   0.03056   0.04098   0.04995
 Alpha virt. eigenvalues --    0.05224   0.05490   0.05752   0.06882   0.07224

  Beta  occ. eigenvalues --  -19.01222 -19.01213 -14.29215 -10.17448 -10.17426
  Beta  occ. eigenvalues --  -10.16183 -10.16095 -10.15538 -10.14516 -10.14380
  Beta  occ. eigenvalues --  -10.14335 -10.14038 -10.13918 -10.13138 -10.12098
  Beta  occ. eigenvalues --   -0.93204  -0.90672  -0.90168  -0.82231  -0.76258
  Beta  occ. eigenvalues --   -0.72169  -0.69540  -0.68624  -0.66005  -0.60462
  Beta  occ. eigenvalues --   -0.58176  -0.55834  -0.52543  -0.48097  -0.46734
  Beta  occ. eigenvalues --   -0.45876  -0.43992  -0.42941  -0.41504  -0.40096
  Beta  occ. eigenvalues --   -0.39385  -0.38217  -0.37427  -0.36566  -0.36350
  Beta  occ. eigenvalues --   -0.35498  -0.35114  -0.33781  -0.32418  -0.31658
  Beta  occ. eigenvalues --   -0.29925  -0.28121  -0.26095  -0.22394  -0.21040
  Beta  occ. eigenvalues --   -0.19637  -0.18358  -0.18040  -0.11313
  Beta virt. eigenvalues --   -0.00768  -0.00145   0.00851   0.01684   0.02114
  Beta virt. eigenvalues --    0.02701   0.02965   0.03056   0.04098   0.04995
  Beta virt. eigenvalues --    0.05224   0.05490   0.05752   0.06882   0.07224

 Mulliken charges and spin densities:
               1          2
     1  C   -0.039136  -0.000000
     2  C   -0.490121  -0.000000
     3  C   -0.491768   0.000000
     4  C    0.377980  -0.000000
     5  C    0.212158   0.000000
     6  C   -0.123805   0.000000
     7  C   -0.488340   0.000000
     8  C   -0.241730   0.000000
     9  C   -0.094466  -0.000000
    10  C   -0.278192   0.000000
    11  O   -0.719487  -0.000000
    12  O   -0.731107   0.000000
    13  H    0.148366   0.000000
    14  H    0.148827  -0.000000
    15  H    0.156333   0.000000
    16  H    0.141902  -0.000000
    17  H    0.117995   0.000000
    18  N    0.149093   0.000000
    19  C   -0.236802   0.000000
    20  C   -0.316500   0.000000
    21  H    0.151223   0.000000
    22  H    0.131900  -0.000000
    23  H    0.112441   0.000000
    24  H    0.130021  -0.000000
    25  H    0.125575  -0.000000
    26  H    0.147641   0.000000
 Sum of Mulliken charges =  -2.00000   0.00000

 Dipole moment (field-independent basis, Debye):
    X=            -12.2075    Y=            -27.5454    Z=              5.2074  Tot=             30.5760
 Quadrupole moment (field-independent basis, Debye-Ang):
   XX=           -146.1503   YY=           -193.3977   ZZ=           -102.9535
   XY=            -44.2162   XZ=              3.7248   YZ=             15.6802

  Exact polarizability: 392.713  13.590 312.938  23.832 -33.230 172.459
 Approx polarizability: 442.957  21.370 348.430  26.855 -35.552 184.166

                      1                      2                      3
                      A                      A                      A
 Frequencies --     28.5892                85.2171               117.9453
 Red. masses --      2.8115                 6.1277                 4.4939
 Frc consts  --      0.0014                 0.0262                 0.0368
 IR Inten    --      3.4576                 0.3089                 0.5367

                      4                      5                      6
                      A                      A                      A
 Frequencies --    137.8529               160.3222               231.7237
 Red. masses --      4.3389                 3.1381                 4.6352
 Frc consts  --      0.0486                 0.0475                 0.1466
 IR Inten    --      3.9415                11.7510                 0.6566

                      7                      8                      9
                      A                      A                      A
 Frequencies --    242.5621               264.5177               266.5161
 Red. masses --      1.4510                 1.3333                 1.5809
 Frc consts  --      0.0503                 0.0550                 0.0662
 IR Inten    --      0.8074                 2.8985                 1.0562

                     10                     11                     12
                      A                      A                      A
 Frequencies --    294.9733               336.7432               368.3700
 Red. masses --      4.4909                 3.9898                13.2594
 Frc consts  --      0.2302                 0.2666                 1.0601
 IR Inten    --      5.5590                 4.2560                 3.2389

                     13                     14                     15
                      A                      A                      A
 Frequencies --    401.6296               424.1820               439.0032
 Red. masses --      3.8285                 3.6998                 5.4807
 Frc consts  --      0.3639                 0.3922                 0.6223
 IR Inten    --     15.8774                 5.9305                30.0790

                     16                     17                     18
                      A                      A                      A
 Frequencies --    471.6199               480.6107               531.9430
 Red. masses --      5.1389                 5.4077                 3.5509
 Frc consts  --      0.6734                 0.7360                 0.5920
 IR Inten    --      9.3788                12.2431                14.7047

                     19                     20                     21
                      A                      A                      A
 Frequencies --    537.7704               628.8841               644.7619
 Red. masses --      4.4295                 5.2288                 4.0830
 Frc consts  --      0.7547                 1.2184                 1.0001
 IR Inten    --      2.1866                18.4373                 2.2051

                     22                     23                     24
                      A                      A                      A
 Frequencies --    672.2492               719.7079               725.1554
 Red. masses --      5.8759                 6.0944                 2.5967
 Frc consts  --      1.5645                 1.8599                 0.8045
 IR Inten    --     25.6645                29.1671                48.8872

                     25                     26                     27
                      A                      A                      A
 Frequencies --    755.2748               778.2234               807.6942
 Red. masses --      2.0470                 4.3749                 4.9918
 Frc consts  --      0.6880                 1.5611                 1.9187
 IR Inten    --     86.5537                 3.1796                18.4850

                     28                     29                     30
                      A                      A                      A
 Frequencies --    838.5523               864.4637               915.8734
 Red. masses --      1.5624                 1.4711                 4.0089
 Frc consts  --      0.6473                 0.6477                 1.9813
 IR Inten    --      0.4601                35.1119                30.4431

                     31                     32                     33
                      A                      A                      A
 Frequencies --    959.5268               971.0247               988.1074
 Red. masses --      1.3398                 1.2344                 7.1914
 Frc consts  --      0.7268                 0.6857                 4.1369
 IR Inten    --      3.8847                 0.6580               133.9117

                     34                     35                     36
                      A                      A                      A
 Frequencies --   1022.4207              1041.0900              1051.1495
 Red. masses --      2.0428                 2.9069                 1.7681
 Frc consts  --      1.2581                 1.8563                 1.1510
 IR Inten    --     31.4283               127.3896                60.3996

                     37                     38                     39
                      A                      A                      A
 Frequencies --   1106.8972              1122.1496              1142.8683
 Red. masses --      1.2465                 1.7645                 1.2471
 Frc consts  --      0.8998                 1.3091                 0.9597
 IR Inten    --      8.1843                19.9164               140.1211

                     40                     41                     42
                      A                      A                      A
 Frequencies --   1167.5096              1186.1067              1212.6161
 Red. masses --      1.4570                 1.8183                 1.9610
 Frc consts  --      1.1702                 1.5072                 1.6989
 IR Inten    --      8.8554               114.9266               149.9330

                     43                     44                     45
                      A                      A                      A
 Frequencies --   1216.7010              1256.8008              1268.8273
 Red. masses --      3.1277                 3.3188                 3.3883
 Frc consts  --      2.7280                 3.0886                 3.2139
 IR Inten    --    137.9926                15.7091               779.8324

                     46                     47                     48
                      A                      A                      A
 Frequencies --   1282.4335              1318.0414              1359.1158
 Red. masses --      2.4628                 5.1207                 5.2626
 Frc consts  --      2.3864                 5.2412                 5.7274
 IR Inten    --    132.5579               897.3560               630.4397

                     49                     50                     51
                      A                      A                      A
 Frequencies --   1396.1852              1421.3347              1430.3582
 Red. masses --      4.2874                 3.1756                 1.1741
 Frc consts  --      4.9241                 3.7798                 1.4153
 IR Inten    --    750.6325               106.0722                 2.3103

                     52                     53                     54
                      A                      A                      A
 Frequencies --   1455.4231              1461.6692              1470.3076
 Red. masses --      1.2736                 2.3088                 1.0599
 Frc consts  --      1.5895                 2.9062                 1.3500
 IR Inten    --     26.0457               171.8086                16.4730

                     55                     56                     57
                      A                      A                      A
 Frequencies --   1480.7935              1491.5647              1507.5039
 Red. masses --      1.0650                 1.0741                 1.0668
 Frc consts  --      1.3760                 1.4079                 1.4284
 IR Inten    --     17.3754                13.3221                13.1679

                     58                     59                     60
                      A                      A                      A
 Frequencies --   1513.8038              1534.6921              1551.0940
 Red. masses --      3.1281                 7.7283                 6.0909
 Frc consts  --      4.2234                10.7245                 8.6340
 IR Inten    --    104.2840               394.8676               146.3827

                     61                     62                     63
                      A                      A                      A
 Frequencies --   1610.0831              2906.8082              2916.9945
 Red. masses --      5.3728                 1.0606                 1.0627
 Frc consts  --      8.2063                 5.2799                 5.3276
 IR Inten    --      8.3043               142.5856               276.8161

                     64                     65                     66
                      A                      A                      A
 Frequencies --   3028.4532              3030.2255              3090.6409
 Red. masses --      1.0749                 1.0711                 1.0989
 Frc consts  --      5.8086                 5.7949                 6.1844
 IR Inten    --     30.8085               184.3256                46.6254

                     67                     68                     69
                      A                      A                      A
 Frequencies --   3093.4686              3124.1150              3134.3977
 Red. masses --      1.0977                 1.0866                 1.0844
 Frc consts  --      6.1890                 6.2486                 6.2767
 IR Inten    --     54.1056                99.3291                19.3605

                     70                     71                     72
                      A                      A                      A
 Frequencies --   3150.0612              3167.0835              3171.7054
 Red. masses --      1.0884                 1.0910                 1.0941
 Frc consts  --      6.3630                 6.4476                 6.4849
 IR Inten    --     34.0028                53.7262                67.8927

 - Thermochemistry -
 -------------------
 Temperature   298.150 Kelvin.  Pressure   1.00000 Atm.
 Atom     1 has atomic number  6 and mass  12.00000

 Molecular mass:   201.07898 amu.
 Principal axes and moments of inertia in atomic units:
                           1         2         3
     Eigenvalues --  2454.340442943.738755091.94846
           X           -0.33632   0.93730  -0.09140
           Y            0.90709   0.34850   0.23610
           Z           -0.25315   0.00350   0.96742
 This molecule is an asymmetric top.
 Rotational symmetry number  1.
 Warning -- assumption of classical behavior for rotation
           may cause significant error
 Rotational temperatures (Kelvin)      0.03529     0.02942     0.01701
 Rotational constants (GHZ):           0.73533     0.61308     0.35443
 Zero-point vibrational energy     526267.7 (Joules/Mol)
                                  125.78099 (Kcal/Mol)
 Warning -- explicit consideration of  19 degrees of freedom as
           vibrations may cause significant error
 Vibrational temperatures:     41.13   122.61   169.70   198.34   230.67
          (Kelvin)            333.40   348.99   380.58   383.46   424.40
                              484.50   530.00   577.86   610.30   631.63
                              678.56   691.49   765.35   773.73   904.82
                              927.67   967.22  1035.50  1043.34  1086.67
                             1119.69  1162.09  1206.49  1243.77  1317.74
                             1380.55  1397.09  1421.67  1471.04  1497.90
                             1512.37  1592.58  1614.52  1644.33  1679.79
                             1706.54  1744.68  1750.56  1808.26  1825.56
                             1845.14  1896.37  1955.46  2008.80  2044.98
                             2057.97  2094.03  2103.02  2115.44  2130.53
                             2146.03  2168.96  2178.03  2208.08  2231.68
                             2316.55  4182.25  4196.90  4357.27  4359.82
                             4446.74  4450.81  4494.90  4509.70  4532.24
                             4556.73  4563.38

 Zero-point correction=                           0.200445 (Hartree/Particle)
 Thermal correction to Energy=                    0.213277
 Thermal correction to Enthalpy=                  0.214221
 Thermal correction to Gibbs Free Energy=         0.161042
 Sum of electronic and zero-point Energies=           -669.305620
 Sum of electronic and thermal Energies=              -669.292787
 Sum of electronic and thermal Enthalpies=            -669.291843
 Sum of electronic and thermal Free Energies=         -669.345023

                     E (Thermal)             CV                S
                      KCal/Mol        Cal/Mol-Kelvin    Cal/Mol-Kelvin
 Total                  133.833             50.410            111.925
 Electronic               0.000              0.000              0.000
 Translational            0.889              2.981             41.800
 Rotational               0.889              2.981             31.976
 Vibrational            132.056             44.448             38.149
 Vibration     1          0.593              1.984              5.925
 Vibration     2          0.601              1.959              3.767
 Vibration     3          0.608              1.934              3.134
 Vibration     4          0.614              1.916              2.833
 Vibration     5          0.622              1.891              2.546
 Vibration     6          0.653              1.792              1.866
 Vibration     7          0.659              1.775              1.784
 Vibration     8          0.671              1.738              1.632
 Vibration     9          0.672              1.735              1.619
 Vibration    10          0.689              1.683              1.445
 Vibration    11          0.717              1.602              1.228
 Vibration    12          0.741              1.537              1.087
 Vibration    13          0.767              1.467              0.957
 Vibration    14          0.786              1.418              0.878
 Vibration    15          0.799              1.385              0.830
 Vibration    16          0.829              1.313              0.733
 Vibration    17          0.837              1.293              0.708
 Vibration    18          0.887              1.179              0.583
 Vibration    19          0.893              1.167              0.570

 Optimization completed.
    -- Stationary point found.
 Normal termination of Gaussian 16 at Sun Feb 11 17:38:35 2024.
