 Gaussian 16, Revision A.03,
 Gaussian 16:  ES64L-G16RevA.03 25-Dec-2016

 ----------------------------------------------------------------------
 #P UB3LYP/6-311++G(d,p) nosym opt freq SCRF=(PCM,Solvent=n,n-DiMethylF
 ormamide)
 ----------------------------------------------------------------------

 -------
 Reduced
 -------
 Symbolic Z-matrix:
 Charge = -2 Multiplicity = 1

 SCF Done:  E(UB3LYP) =  -706.441559032     A.U. after   18 cycles
 SCF Done:  E(UB3LYP) =  -706.442440900     A.U. after   13 cycles
 SCF Done:  E(UB3LYP) =  -706.442589661     A.U. after   13 cycles
 SCF Done:  E(UB3LYP) =  -706.442610694     A.U. after   13 cycles
 SCF Done:  E(UB3LYP) =  -706.442618826     A.U. after   11 cycles
 SCF Done:  E(UB3LYP) =  -706.442619829     A.U. after   11 cycles
 SCF Done:  E(UB3LYP) =  -706.442620907     A.U. after    9 cycles
 SCF Done:  E(UB3LYP) =  -706.442622716     A.U. after   10 cycles
 SCF Done:  E(UB3LYP) =  -706.442624455     A.U. after   11 cycles
 SCF Done:  E(UB3LYP) =  -706.442627035     A.U. after   10 cycles
 SCF Done:  E(UB3LYP) =  -706.442638975     A.U. after   12 cycles
 SCF Done:  E(UB3LYP) =  -706.442641056     A.U. after   11 cycles
 SCF Done:  E(UB3LYP) =  -706.442636248     A.U. after   11 cycles
 SCF Done:  E(UB3LYP) =  -706.442641783     A.U. after   11 cycles
 SCF Done:  E(UB3LYP) =  -706.442643970     A.U. after   11 cycles
 SCF Done:  E(UB3LYP) =  -706.442644015     A.U. after   10 cycles
 SCF Done:  E(UB3LYP) =  -706.442644074     A.U. after   10 cycles
 SCF Done:  E(UB3LYP) =  -706.442644212     A.U. after    8 cycles
 SCF Done:  E(UB3LYP) =  -706.442644253     A.U. after    9 cycles
 Optimization completed.
    -- Stationary point found.
 Normal termination of Gaussian 16 at Sun Feb 11 02:56:58 2024.

 ----------------------------------------------------------------------
 #P Geom=AllCheck Guess=TCheck SCRF=Check GenChk UB3LYP/6-311++G(d,p) F
 req
 ----------------------------------------------------------------------

 Structure from the checkpoint file:  "228-an.chk"
 -------
 Reduced
 -------
 Charge = -2 Multiplicity = 1

                          Input orientation:
 ---------------------------------------------------------------------
 Center     Atomic      Atomic             Coordinates (Angstroms)
 Number     Number       Type             X           Y           Z
 ---------------------------------------------------------------------
      1          6           0        5.788821   -5.128389    1.246464
      2          6           0        6.784936   -5.064308    0.304684
      3          6           0        6.669846   -4.121455   -0.769462
      4          6           0        4.635808   -4.293381    1.207844
      5          6           0        4.524445   -3.341849    0.117883
      6          6           0        5.552360   -3.289734   -0.835567
      7          6           0        3.622224   -4.399940    2.218344
      8          6           0        2.520907   -3.498749    2.079080
      9          6           0        2.400639   -2.573001    1.012855
     10          6           0        3.386826   -2.446837   -0.007158
     11          8           0        3.713089   -5.264907    3.197988
     12          8           0        3.298628   -1.599744   -0.990957
     13          6           0        7.682993   -4.030797   -1.756971
     14          7           0        8.520648   -3.963871   -2.561264
     15          1           0        5.862132   -5.835522    2.064849
     16          1           0        7.652419   -5.712103    0.361119
     17          1           0        5.453780   -2.571427   -1.641080
     18          6           0        1.436255   -3.557785    3.130613
     19          6           0        1.188412   -1.671315    0.936903
     20          1           0        1.760831   -4.194135    3.953694
     21          1           0        0.499401   -3.973397    2.734784
     22          1           0        1.190634   -2.565617    3.525160
     23          1           0        0.249323   -2.233795    0.997368
     24          1           0        1.202496   -1.119530   -0.003258
     25          1           0        1.161845   -0.938940    1.755245
 ---------------------------------------------------------------------

 SCF Done:  E(UB3LYP) =  -706.442644253     A.U. after    1 cycles

 Alpha  occ. eigenvalues --  -19.01991 -19.01250 -14.30101 -10.20551 -10.18444
 Alpha  occ. eigenvalues --  -10.17595 -10.16903 -10.16640 -10.16100 -10.15249
 Alpha  occ. eigenvalues --  -10.14404 -10.14023 -10.13704 -10.13694 -10.13670
 Alpha  occ. eigenvalues --  -10.13262  -0.93256  -0.92189  -0.90311  -0.83898
 Alpha  occ. eigenvalues --   -0.78724  -0.74788  -0.73562  -0.69998  -0.66309
 Alpha  occ. eigenvalues --   -0.63911  -0.59310  -0.57534  -0.53624  -0.50675
 Alpha  occ. eigenvalues --   -0.47907  -0.44568  -0.43978  -0.41099  -0.41028
 Alpha  occ. eigenvalues --   -0.39387  -0.38748  -0.38571  -0.37477  -0.36848
 Alpha  occ. eigenvalues --   -0.36222  -0.35930  -0.35405  -0.35248  -0.34252
 Alpha  occ. eigenvalues --   -0.32720  -0.31454  -0.31326  -0.30400  -0.30238
 Alpha  occ. eigenvalues --   -0.23859  -0.22501  -0.20693  -0.20087  -0.19201
 Alpha  occ. eigenvalues --   -0.11632
 Alpha virt. eigenvalues --   -0.03293  -0.00368  -0.00202   0.00700   0.01595
 Alpha virt. eigenvalues --    0.02853   0.03042   0.03338   0.03450   0.04574
 Alpha virt. eigenvalues --    0.05336   0.05386   0.05709   0.06094   0.06408

  Beta  occ. eigenvalues --  -19.01991 -19.01250 -14.30101 -10.20551 -10.18444
  Beta  occ. eigenvalues --  -10.17595 -10.16903 -10.16640 -10.16100 -10.15249
  Beta  occ. eigenvalues --  -10.14404 -10.14023 -10.13704 -10.13694 -10.13670
  Beta  occ. eigenvalues --  -10.13262  -0.93256  -0.92189  -0.90311  -0.83898
  Beta  occ. eigenvalues --   -0.78724  -0.74788  -0.73562  -0.69998  -0.66309
  Beta  occ. eigenvalues --   -0.63911  -0.59310  -0.57534  -0.53624  -0.50675
  Beta  occ. eigenvalues --   -0.47907  -0.44568  -0.43978  -0.41099  -0.41028
  Beta  occ. eigenvalues --   -0.39387  -0.38748  -0.38571  -0.37477  -0.36848
  Beta  occ. eigenvalues --   -0.36222  -0.35930  -0.35405  -0.35248  -0.34252
  Beta  occ. eigenvalues --   -0.32720  -0.31454  -0.31326  -0.30400  -0.30238
  Beta  occ. eigenvalues --   -0.23859  -0.22501  -0.20693  -0.20087  -0.19201
  Beta  occ. eigenvalues --   -0.11632
  Beta virt. eigenvalues --   -0.03293  -0.00368  -0.00202   0.00700   0.01595
  Beta virt. eigenvalues --    0.02853   0.03042   0.03338   0.03450   0.04574
  Beta virt. eigenvalues --    0.05336   0.05386   0.05709   0.06094   0.06408

 Mulliken charges and spin densities:
               1          2
     1  C   -0.034695   0.000000
     2  C   -0.708064  -0.000000
     3  C    1.342565   0.000000
     4  C    0.160244   0.000000
     5  C   -0.088053  -0.000000
     6  C    0.189521  -0.000000
     7  C   -0.617391   0.000000
     8  C    0.400670   0.000000
     9  C    0.650751  -0.000000
    10  C   -0.591232   0.000000
    11  O   -0.704346  -0.000000
    12  O   -0.666630  -0.000000
    13  C   -1.399124  -0.000000
    14  N   -0.356087   0.000000
    15  H    0.145774  -0.000000
    16  H    0.177747  -0.000000
    17  H    0.166405  -0.000000
    18  C   -0.483949   0.000000
    19  C   -0.473614  -0.000000
    20  H    0.171895  -0.000000
    21  H    0.144453   0.000000
    22  H    0.131957   0.000000
    23  H    0.133311   0.000000
    24  H    0.166670  -0.000000
    25  H    0.141222   0.000000
 Sum of Mulliken charges =  -2.00000  -0.00000

 Dipole moment (field-independent basis, Debye):
    X=            -43.4417    Y=             34.5839    Z=             -4.1996  Tot=             55.6854
 Quadrupole moment (field-independent basis, Debye-Ang):
   XX=           -339.6307   YY=           -251.2412   ZZ=           -158.3495
   XY=            162.4527   XZ=              8.2537   YZ=             39.3776

  Exact polarizability: 443.752 -99.166 243.908-135.237 -35.326 306.407
 Approx polarizability: 503.174-115.922 278.449-151.446 -42.781 346.259

                      1                      2                      3
                      A                      A                      A
 Frequencies --     55.1946                78.9059                90.4770
 Red. masses --      6.0674                 1.5966                 1.9144
 Frc consts  --      0.0109                 0.0059                 0.0092
 IR Inten    --      0.1551                10.4546                16.2818

                      4                      5                      6
                      A                      A                      A
 Frequencies --    119.8614               130.2508               137.6924
 Red. masses --      9.2605                 1.4664                 2.0989
 Frc consts  --      0.0784                 0.0147                 0.0234
 IR Inten    --      2.5698                 0.7008                 8.2597

                      7                      8                      9
                      A                      A                      A
 Frequencies --    162.4785               207.7413               255.5868
 Red. masses --      3.8100                 5.6772                 5.6644
 Frc consts  --      0.0593                 0.1444                 0.2180
 IR Inten    --      5.2475                 0.0786                30.8490

                     10                     11                     12
                      A                      A                      A
 Frequencies --    301.9221               316.3548               335.2184
 Red. masses --      4.1789                 4.5341                 3.9984
 Frc consts  --      0.2244                 0.2674                 0.2647
 IR Inten    --      1.0570                 0.6275                 4.7832

                     13                     14                     15
                      A                      A                      A
 Frequencies --    348.5105               399.1967               405.0386
 Red. masses --      3.6195                 7.5864                 6.6446
 Frc consts  --      0.2590                 0.7123                 0.6423
 IR Inten    --      2.1393                 0.6365                 0.1475

                     16                     17                     18
                      A                      A                      A
 Frequencies --    430.3497               449.3551               497.8172
 Red. masses --      6.0980                 3.2487                 5.7261
 Frc consts  --      0.6654                 0.3865                 0.8361
 IR Inten    --     31.3596                 4.5141                 2.9917

                     19                     20                     21
                      A                      A                      A
 Frequencies --    500.9004               556.0700               580.2704
 Red. masses --      9.7201                 6.3113                 7.2046
 Frc consts  --      1.4369                 1.1498                 1.4293
 IR Inten    --      9.5609                41.4915                18.6376

                     22                     23                     24
                      A                      A                      A
 Frequencies --    587.4614               654.6054               674.0572
 Red. masses --      5.5359                 4.7209                 4.0676
 Frc consts  --      1.1256                 1.1919                 1.0889
 IR Inten    --     23.8019                10.4455                13.5788

                     25                     26                     27
                      A                      A                      A
 Frequencies --    680.2083               719.2591               730.0333
 Red. masses --      6.7054                 5.3415                 4.6821
 Frc consts  --      1.8279                 1.6281                 1.4702
 IR Inten    --     22.4017                25.0547                28.9787

                     28                     29                     30
                      A                      A                      A
 Frequencies --    774.3842               813.4609               865.9106
 Red. masses --      2.1336                 2.8016                 3.9964
 Frc consts  --      0.7538                 1.0923                 1.7655
 IR Inten    --     13.0662                24.7603                22.2422

                     31                     32                     33
                      A                      A                      A
 Frequencies --    908.9727               939.8441               970.8068
 Red. masses --      2.6304                 1.4549                 1.3075
 Frc consts  --      1.2805                 0.7572                 0.7260
 IR Inten    --     13.2952                16.3840                 1.6680

                     34                     35                     36
                      A                      A                      A
 Frequencies --    990.6986              1005.7462              1027.1612
 Red. masses --      2.6644                 2.0006                 1.4273
 Frc consts  --      1.5408                 1.1923                 0.8872
 IR Inten    --     56.0881                61.3085                 2.1159

                     37                     38                     39
                      A                      A                      A
 Frequencies --   1052.1418              1088.7775              1107.8284
 Red. masses --      1.5426                 2.5457                 1.9733
 Frc consts  --      1.0061                 1.7780                 1.4269
 IR Inten    --     18.4483               302.9319               275.4900

                     40                     41                     42
                      A                      A                      A
 Frequencies --   1122.5302              1173.5778              1194.8565
 Red. masses --      2.1031                 2.4867                 5.5883
 Frc consts  --      1.5614                 2.0179                 4.7007
 IR Inten    --     41.2534               764.1287               175.9221

                     43                     44                     45
                      A                      A                      A
 Frequencies --   1219.0302              1272.9657              1318.8691
 Red. masses --      3.5794                 2.0670                 6.0243
 Frc consts  --      3.1339                 1.9735                 6.1739
 IR Inten    --    870.3484                18.5550               667.9675

                     46                     47                     48
                      A                      A                      A
 Frequencies --   1347.7435              1371.4432              1386.2222
 Red. masses --      2.3783                 2.4121                 1.9461
 Frc consts  --      2.5452                 2.6730                 2.2034
 IR Inten    --   1161.0880                17.8383               389.6408

                     49                     50                     51
                      A                      A                      A
 Frequencies --   1393.5805              1412.9627              1452.1229
 Red. masses --      2.1541                 3.5152                 2.1380
 Frc consts  --      2.4648                 4.1349                 2.6563
 IR Inten    --    457.4503               113.7798                92.7059

                     52                     53                     54
                      A                      A                      A
 Frequencies --   1461.1746              1473.1633              1477.3033
 Red. masses --      2.6669                 1.1626                 1.5416
 Frc consts  --      3.3547                 1.4866                 1.9822
 IR Inten    --     31.5817                 6.7908               116.0804

                     55                     56                     57
                      A                      A                      A
 Frequencies --   1485.3201              1494.7412              1516.3434
 Red. masses --      1.3068                 1.1055                 3.5909
 Frc consts  --      1.6986                 1.4552                 4.8647
 IR Inten    --     44.1614                18.3510               230.2666

                     58                     59                     60
                      A                      A                      A
 Frequencies --   1540.5629              1598.3202              2246.2660
 Red. masses --      6.3657                 6.4340                12.6663
 Frc consts  --      8.9014                 9.6841                37.6549
 IR Inten    --    295.9786               138.6680              1830.9043

                     61                     62                     63
                      A                      A                      A
 Frequencies --   2984.2504              2985.0467              3022.3894
 Red. masses --      1.0489                 1.0501                 1.0917
 Frc consts  --      5.5035                 5.5129                 5.8755
 IR Inten    --     39.9465               344.2469                89.7831

                     64                     65                     66
                      A                      A                      A
 Frequencies --   3029.9903              3107.6617              3109.8776
 Red. masses --      1.0882                 1.0935                 1.0946
 Frc consts  --      5.8864                 6.2222                 6.2370
 IR Inten    --     77.4293                23.5884                21.2665

                     67                     68                     69
                      A                      A                      A
 Frequencies --   3165.2190              3180.4463              3182.7938
 Red. masses --      1.0861                 1.0899                 1.0938
 Frc consts  --      6.4109                 6.4955                 6.5284
 IR Inten    --      2.0297                 9.7825                46.0853

 - Thermochemistry -
 -------------------
 Temperature   298.150 Kelvin.  Pressure   1.00000 Atm.
 Atom     1 has atomic number  6 and mass  12.00000

 Molecular mass:   211.06333 amu.
 Principal axes and moments of inertia in atomic units:
                           1         2         3
     Eigenvalues --  1777.708944893.555866648.95763
           X            0.83330  -0.27702   0.47841
           Y           -0.15655   0.71173   0.68479
           Z           -0.53020  -0.64552   0.54972
 This molecule is an asymmetric top.
 Rotational symmetry number  1.
 Warning -- assumption of classical behavior for rotation
           may cause significant error
 Rotational temperatures (Kelvin)      0.04872     0.01770     0.01303
 Rotational constants (GHZ):           1.01521     0.36880     0.27143
 Zero-point vibrational energy     476576.2 (Joules/Mol)
                                  113.90445 (Kcal/Mol)
 Warning -- explicit consideration of  22 degrees of freedom as
           vibrations may cause significant error
 Vibrational temperatures:     79.41   113.53   130.18   172.45   187.40
          (Kelvin)            198.11   233.77   298.89   367.73   434.40
                              455.16   482.30   501.43   574.35   582.76
                              619.18   646.52   716.25   720.68   800.06
                              834.88   845.23   941.83   969.82   978.67
                             1034.85  1050.36  1114.17  1170.39  1245.85
                             1307.81  1352.23  1396.77  1425.39  1447.04
                             1477.86  1513.80  1566.51  1593.92  1615.07
                             1688.52  1719.13  1753.91  1831.51  1897.56
                             1939.10  1973.20  1994.46  2005.05  2032.94
                             2089.28  2102.30  2119.55  2125.51  2137.04
                             2150.60  2181.68  2216.53  2299.63  3231.88
                             4293.67  4294.82  4348.54  4359.48  4471.23
                             4474.42  4554.04  4575.95  4579.33

 Zero-point correction=                           0.181518 (Hartree/Particle)
 Thermal correction to Energy=                    0.195400
 Thermal correction to Enthalpy=                  0.196344
 Thermal correction to Gibbs Free Energy=         0.140904
 Sum of electronic and zero-point Energies=           -706.261126
 Sum of electronic and thermal Energies=              -706.247244
 Sum of electronic and thermal Enthalpies=            -706.246300
 Sum of electronic and thermal Free Energies=         -706.301741

                     E (Thermal)             CV                S
                      KCal/Mol        Cal/Mol-Kelvin    Cal/Mol-Kelvin
 Total                  122.616             52.932            116.685
 Electronic               0.000              0.000              0.000
 Translational            0.889              2.981             41.945
 Rotational               0.889              2.981             32.425
 Vibrational            120.838             46.970             42.315
 Vibration     1          0.596              1.975              4.622
 Vibration     2          0.600              1.963              3.918
 Vibration     3          0.602              1.956              3.650
 Vibration     4          0.609              1.933              3.103
 Vibration     5          0.612              1.923              2.942
 Vibration     6          0.614              1.916              2.836
 Vibration     7          0.623              1.888              2.521
 Vibration     8          0.641              1.829              2.063
 Vibration     9          0.666              1.753              1.692
 Vibration    10          0.694              1.670              1.406
 Vibration    11          0.703              1.642              1.329
 Vibration    12          0.716              1.605              1.235
 Vibration    13          0.726              1.578              1.173
 Vibration    14          0.765              1.472              0.966
 Vibration    15          0.770              1.459              0.944
 Vibration    16          0.792              1.404              0.858
 Vibration    17          0.808              1.362              0.798
 Vibration    18          0.853              1.255              0.664
 Vibration    19          0.856              1.248              0.656
 Vibration    20          0.912              1.126              0.532
 Vibration    21          0.937              1.074              0.485
 Vibration    22          0.945              1.059              0.472

 Optimization completed.
    -- Stationary point found.
 Normal termination of Gaussian 16 at Sun Feb 11 03:36:25 2024.
