 Q-Chem 5.4, Q-Chem, Inc., Pleasanton, CA (2021)
 Q-Chem 5.4.0 for Intel X86 EM64T Linux

User input:
--------------------------------------------------------------
$molecule
-1 2
C                 -2.1949330000     -3.8644980000      1.2071330000
C                 -0.7561110000     -3.8674730000      1.3897640000
C                 -0.0178930000     -2.7361080000      1.5864910000
C                 -0.6137980000     -1.4186920000      1.6289290000
C                 -2.0602370000     -1.3852650000      1.4374620000
C                 -2.7866120000     -2.5329590000      1.2471670000
O                 -2.8579090000     -4.9159620000      1.0352530000
O                  0.0530510000     -0.3669920000      1.8136910000
Cl                -4.5419950000     -2.4446400000      1.0503480000
C                 -2.6911470000     -0.0290870000      1.4429410000
O                 -2.9231360000      0.6494380000      0.4716580000
O                 -2.9711480000      0.3798080000      2.7044040000
C                 -3.5084010000      1.7016530000      2.8188320000
H                 -0.2867440000     -4.8464510000      1.3624610000
H                  1.0586040000     -2.7815080000      1.7221240000
H                 -3.6597080000      1.8650380000      3.8851970000
H                 -4.4561320000      1.7830530000      2.2817400000
H                 -2.8071200000      2.4356070000      2.4163050000
$end
$rem
MAX_SCF_CYCLES=200
BASIS  =  6-311++G(d,p)
GUI  =  2
JOB_TYPE  =  SP
METHOD  =  B3LYP
SOLVENT_METHOD = COSMO
$end
$solvent
dielectric 37.219
opticaldielectric 1.43
$end

--------------------------------------------------------------

             Standard Nuclear Orientation (Angstroms)
    I     Atom           X                Y                Z
 ----------------------------------------------------------------
    1      C       2.2918769383    -0.2236353622     0.1301533649
    2      C       2.5354687511     1.2052895468     0.1792279365
    3      C       1.5480731301     2.1430469068     0.0827131044
    4      C       0.1551233135     1.7887625687    -0.0805721861
    5      C      -0.1177650940     0.3564473235    -0.1435619669
    6      C       0.8865128043    -0.5716959147    -0.0386316199
    7      O       3.2119888762    -1.0712118472     0.2284619512
    8      O      -0.7667562004     2.6417677772    -0.1666985565
    9      Cl      0.5029420585    -2.2974330957    -0.0897403925
   10      C      -1.5482681593    -0.0300950433    -0.3473809897
   11      O      -2.0761364968    -0.2628328113    -1.4079439947
   12      O      -2.2190321216    -0.0777257366     0.8293482082
   13      C      -3.6178428615    -0.3649633374     0.7301926131
   14      H       3.5748652902     1.4950411490     0.3023035329
   15      H       1.7722005486     3.2047041858     0.1269169954
   16      H      -3.9926240391    -0.3526031298     1.7529873500
   17      H      -3.7814316827    -1.3445645023     0.2753211147
   18      H      -4.1226105059     0.3948657369     0.1298752773
 ----------------------------------------------------------------

   10   -1069.2121396920      5.53e-06  Convergence criterion met
 Total energy in the final basis set =    -1069.2121396920
    5   -1069.3002490064      4.55e-06  Convergence criterion met
 Total energy in the final basis set =    -1069.3002490064

                    Orbital Energies (a.u.)
 --------------------------------------------------------------

 Alpha MOs
 -- Occupied --
******** -19.1786 -19.1311 -19.0968 -19.0960 -10.3207 -10.2434 -10.2433
-10.2422 -10.2191 -10.1999 -10.1786 -10.1768  -9.4724  -7.2366  -7.2277
 -7.2269  -1.1219  -1.0372  -1.0230  -1.0195  -0.8846  -0.8263  -0.7752
 -0.7256  -0.6986  -0.6353  -0.5899  -0.5706  -0.5277  -0.5072  -0.4956
 -0.4795  -0.4755  -0.4483  -0.4347  -0.4296  -0.4238  -0.4101  -0.3966
 -0.3961  -0.3828  -0.3674  -0.3563  -0.3218  -0.3187  -0.3078  -0.2954
 -0.2658  -0.2646  -0.2585  -0.1808

 Beta MOs
 -- Occupied --
******** -19.1785 -19.1310 -19.0898 -19.0891 -10.3208 -10.2420 -10.2420
-10.2407 -10.2191 -10.1986 -10.1778 -10.1758  -9.4723  -7.2366  -7.2274
 -7.2269  -1.1217  -1.0370  -1.0109  -1.0074  -0.8815  -0.8219  -0.7728
 -0.7243  -0.6888  -0.6320  -0.5859  -0.5693  -0.5258  -0.5050  -0.4950
 -0.4781  -0.4725  -0.4453  -0.4296  -0.4210  -0.4136  -0.4077  -0.3939
 -0.3809  -0.3697  -0.3669  -0.3456  -0.3213  -0.3185  -0.3058  -0.2657
 -0.2582  -0.2577  -0.2523

          Ground-State Mulliken Net Atomic Charges

     Atom                 Charge (a.u.)    Spin (a.u.)
  --------------------------------------------------------
      1 C                    -0.543136       0.130195
      2 C                    -0.007151       0.066088
      3 C                     0.155301       0.096740
      4 C                    -0.776728       0.067973
      5 C                     0.659897       0.090648
      6 C                     0.419473       0.050351
      7 O                    -0.459377       0.249172
      8 O                    -0.455086       0.247786
      9 Cl                    0.443316       0.009177
     10 C                    -0.914573       0.001210
     11 O                    -0.247864       0.002597
     12 O                    -0.015927      -0.000599
     13 C                    -0.259250       0.001349
     14 H                     0.224325      -0.005665
     15 H                     0.221281      -0.007054
     16 H                     0.182577       0.000295
     17 H                     0.183509       0.000031
     18 H                     0.189411      -0.000294
  --------------------------------------------------------
  Sum of atomic charges =    -1.000000

                    Cartesian Multipole Moments
 -----------------------------------------------------------------
    Charge (ESU x 10^10)
                -4.8032
    Dipole Moment (Debye)
         X      -4.6667      Y      -0.8753      Z       2.2869
       Tot       5.2701
    Quadrupole Moments (Debye-Ang)
        XX     -99.7591     XY      19.7825     YY    -103.5509
        XZ      -8.6917     YZ       0.6914     ZZ     -89.7739

 Total job time:  35.44s(wall), 254.23s(cpu)
        *  Thank you very much for using Q-Chem.  Have a nice day.  *
