 Gaussian 16, Revision A.03,
 Gaussian 16:  ES64L-G16RevA.03 25-Dec-2016

 --------------------------------------
 #P UB3LYP/6-311++G(d,p) nosym opt freq
 --------------------------------------

 -------
 Radical
 -------
 Symbolic Z-matrix:
 Charge = -1 Multiplicity = 2

 SCF Done:  E(UB3LYP) =  -1279.22738703     A.U. after   24 cycles
 SCF Done:  E(UB3LYP) =  -1279.23956463     A.U. after   20 cycles
 SCF Done:  E(UB3LYP) =  -1279.24128495     A.U. after   21 cycles
 SCF Done:  E(UB3LYP) =  -1279.24163562     A.U. after   21 cycles
 SCF Done:  E(UB3LYP) =  -1279.24161419     A.U. after   22 cycles
 SCF Done:  E(UB3LYP) =  -1279.24217052     A.U. after   19 cycles
 SCF Done:  E(UB3LYP) =  -1279.24250171     A.U. after   22 cycles
 SCF Done:  E(UB3LYP) =  -1279.24271884     A.U. after   18 cycles
 SCF Done:  E(UB3LYP) =  -1279.24289928     A.U. after   20 cycles
 SCF Done:  E(UB3LYP) =  -1279.24182800     A.U. after   24 cycles
 SCF Done:  E(UB3LYP) =  -1279.24333243     A.U. after   19 cycles
 SCF Done:  E(UB3LYP) =  -1279.24200566     A.U. after   24 cycles
 SCF Done:  E(UB3LYP) =  -1279.24355349     A.U. after   17 cycles
 SCF Done:  E(UB3LYP) =  -1279.24361959     A.U. after   16 cycles
 SCF Done:  E(UB3LYP) =  -1279.24353251     A.U. after   17 cycles
 SCF Done:  E(UB3LYP) =  -1279.24359405     A.U. after   15 cycles
 SCF Done:  E(UB3LYP) =  -1279.24359137     A.U. after   14 cycles
 SCF Done:  E(UB3LYP) =  -1279.24359388     A.U. after   14 cycles
 Optimization completed.
    -- Stationary point found.
 Normal termination of Gaussian 16 at Thu Dec 28 21:54:01 2023.

 ----------------------------------------------------------------------
 #P Geom=AllCheck Guess=TCheck SCRF=Check GenChk UB3LYP/6-311++G(d,p) F
 req
 ----------------------------------------------------------------------

 Structure from the checkpoint file:  "297-rad.chk"
 -------
 Radical
 -------
 Charge = -1 Multiplicity = 2

                          Input orientation:
 ---------------------------------------------------------------------
 Center     Atomic      Atomic             Coordinates (Angstroms)
 Number     Number       Type             X           Y           Z
 ---------------------------------------------------------------------
      1          6           0       -0.850906    2.771540    0.360797
      2          6           0       -1.516386    2.900279   -0.843908
      3          6           0       -1.001238    2.291033   -2.004296
      4          6           0        0.348797    2.031855    0.445931
      5          6           0        0.869747    1.416770   -0.723925
      6          6           0        0.174804    1.561126   -1.935993
      7          6           0        1.042262    1.896766    1.708960
      8          6           0        2.264186    1.119235    1.713774
      9          6           0        2.794343    0.512450    0.582958
     10          6           0        2.127694    0.624166   -0.704733
     11          8           0        0.659277    2.403962    2.812613
     12          8           0        2.556332    0.090943   -1.746021
     13          8           0        2.843341    1.040260    2.929825
     14          1           0       -1.228083    3.230723    1.267318
     15          1           0       -2.438326    3.471949   -0.896191
     16          1           0       -1.525231    2.392845   -2.949641
     17          1           0        0.594667    1.080210   -2.811912
     18          1           0        2.223578    1.565717    3.485754
     19         16           0        4.364920   -0.321579    0.676158
     20          6           0        3.959631   -2.055893    0.785139
     21          6           0        2.654952   -2.556613    0.821169
     22          6           0        5.024442   -2.965194    0.850466
     23          6           0        2.430189   -3.927244    0.917790
     24          6           0        4.785450   -4.332475    0.947733
     25          6           0        3.483823   -4.844651    0.980322
     26          6           0        3.226141   -6.331944    1.046275
     27          1           0        1.819811   -1.869089    0.773481
     28          1           0        6.045622   -2.597735    0.827382
     29          1           0        1.405523   -4.288542    0.943682
     30          1           0        5.630603   -5.013897    1.000440
     31          1           0        4.055232   -6.859290    1.526972
     32          1           0        3.101146   -6.764534    0.045927
     33          1           0        2.315919   -6.554689    1.610753
 ---------------------------------------------------------------------

 SCF Done:  E(UB3LYP) =  -1279.24359388     A.U. after    1 cycles

 Alpha  occ. eigenvalues --  -88.73356 -19.03139 -18.96938 -18.95504 -10.11878
 Alpha  occ. eigenvalues --  -10.11303 -10.10495 -10.10110 -10.08966 -10.08641
 Alpha  occ. eigenvalues --  -10.08062 -10.07767 -10.07752 -10.07128 -10.07077
 Alpha  occ. eigenvalues --  -10.06963 -10.06730 -10.06466 -10.06307 -10.06246
 Alpha  occ. eigenvalues --  -10.06145  -7.81927  -5.78341  -5.77925  -5.77317
 Alpha  occ. eigenvalues --   -0.95555  -0.88540  -0.87996  -0.76784  -0.74971
 Alpha  occ. eigenvalues --   -0.70923  -0.68669  -0.65211  -0.64926  -0.64188
 Alpha  occ. eigenvalues --   -0.61509  -0.57657  -0.55001  -0.51601  -0.51095
 Alpha  occ. eigenvalues --   -0.49599  -0.47492  -0.46001  -0.42716  -0.40727
 Alpha  occ. eigenvalues --   -0.39099  -0.37787  -0.37007  -0.35786  -0.34964
 Alpha  occ. eigenvalues --   -0.34075  -0.33939  -0.32873  -0.32187  -0.31734
 Alpha  occ. eigenvalues --   -0.31022  -0.30453  -0.29719  -0.28603  -0.27451
 Alpha  occ. eigenvalues --   -0.27025  -0.26700  -0.26498  -0.25581  -0.24763
 Alpha  occ. eigenvalues --   -0.24013  -0.23037  -0.22985  -0.21246  -0.17966
 Alpha  occ. eigenvalues --   -0.15992  -0.15480  -0.14671  -0.14341  -0.12517
 Alpha  occ. eigenvalues --   -0.11950  -0.09736  -0.03654
 Alpha virt. eigenvalues --    0.06201   0.07522   0.07764   0.07925   0.08116
 Alpha virt. eigenvalues --    0.08298   0.09201   0.09481   0.09766   0.10620
 Alpha virt. eigenvalues --    0.10803   0.10995   0.12161   0.12756   0.13299

  Beta  occ. eigenvalues --  -88.73358 -19.03062 -18.96219 -18.95006 -10.11715
  Beta  occ. eigenvalues --  -10.11252 -10.10222 -10.10096 -10.08966 -10.08641
  Beta  occ. eigenvalues --  -10.08062 -10.07767 -10.07752 -10.07128 -10.07002
  Beta  occ. eigenvalues --  -10.06981 -10.06624 -10.06465 -10.06249 -10.06210
  Beta  occ. eigenvalues --  -10.06101  -7.81928  -5.78345  -5.77929  -5.77318
  Beta  occ. eigenvalues --   -0.95283  -0.87703  -0.86777  -0.76775  -0.74758
  Beta  occ. eigenvalues --   -0.70764  -0.68416  -0.65166  -0.64797  -0.64009
  Beta  occ. eigenvalues --   -0.61391  -0.57287  -0.54435  -0.51582  -0.50941
  Beta  occ. eigenvalues --   -0.49389  -0.47386  -0.45756  -0.42560  -0.40628
  Beta  occ. eigenvalues --   -0.38938  -0.37735  -0.36755  -0.35752  -0.34851
  Beta  occ. eigenvalues --   -0.34063  -0.33853  -0.32699  -0.31757  -0.31443
  Beta  occ. eigenvalues --   -0.30843  -0.29970  -0.29172  -0.28234  -0.27025
  Beta  occ. eigenvalues --   -0.26633  -0.26550  -0.26359  -0.24799  -0.24264
  Beta  occ. eigenvalues --   -0.23631  -0.22782  -0.21218  -0.20990  -0.17948
  Beta  occ. eigenvalues --   -0.15982  -0.14060  -0.13708  -0.13461  -0.11559
  Beta  occ. eigenvalues --   -0.11403  -0.09678
  Beta virt. eigenvalues --    0.02977   0.06203   0.07759   0.07928   0.08021
  Beta virt. eigenvalues --    0.08272   0.08302   0.09248   0.09762   0.10469
  Beta virt. eigenvalues --    0.10636   0.10838   0.11032   0.12165   0.12761

 Mulliken charges and spin densities:
               1          2
     1  C   -0.102216   0.078217
     2  C   -0.483863  -0.017557
     3  C   -0.420962   0.084352
     4  C    0.221699  -0.016173
     5  C    0.420366   0.097340
     6  C    0.012138  -0.023463
     7  C   -0.722855   0.174062
     8  C   -0.761307   0.094649
     9  C    2.176345   0.037512
    10  C   -1.049409   0.026610
    11  O   -0.444812   0.265637
    12  O   -0.308206   0.184662
    13  O   -0.177914   0.025383
    14  H    0.180708  -0.004711
    15  H    0.122671   0.000519
    16  H    0.126913  -0.006153
    17  H    0.181246   0.000780
    18  H    0.271806  -0.004225
    19  S    0.267075   0.004581
    20  C   -0.040939   0.007712
    21  C   -0.441869  -0.008611
    22  C   -0.119109   0.001978
    23  C   -0.222848  -0.004335
    24  C   -0.789782  -0.000084
    25  C    0.623122  -0.001310
    26  C   -0.534584  -0.001387
    27  H    0.182028   0.003355
    28  H    0.149150   0.000149
    29  H    0.159613   0.000110
    30  H    0.119079   0.000437
    31  H    0.127319   0.000029
    32  H    0.148650  -0.000059
    33  H    0.130747  -0.000008
 Sum of Mulliken charges =  -1.00000   1.00000

 Dipole moment (field-independent basis, Debye):
    X=            -10.5435    Y=             -3.2069    Z=             -2.5331  Tot=             11.3078
 Quadrupole moment (field-independent basis, Debye-Ang):
   XX=           -168.9577   YY=           -152.0272   ZZ=           -158.3843
   XY=              4.4887   XZ=             -1.7582   YZ=             -7.8285

  Exact polarizability: 269.243 -80.182 296.339  26.389  -0.929 231.384
 Approx polarizability: 429.673 -85.358 400.655  18.773  32.231 418.566

                      1                      2                      3
                      A                      A                      A
 Frequencies --     12.8821                26.9092                31.7790
 Red. masses --      6.7265                 2.6048                 5.3993
 Frc consts  --      0.0007                 0.0011                 0.0032
 IR Inten    --      0.6922                 0.0369                 0.7995

                      4                      5                      6
                      A                      A                      A
 Frequencies --     34.9724                83.2898               102.8666
 Red. masses --      1.1771                 8.9306                 4.2032
 Frc consts  --      0.0008                 0.0365                 0.0262
 IR Inten    --      0.1851                 5.2142                 0.0083

                      7                      8                      9
                      A                      A                      A
 Frequencies --    109.5387               151.6657               181.5382
 Red. masses --      5.7951                 6.2590                 7.0059
 Frc consts  --      0.0410                 0.0848                 0.1360
 IR Inten    --      0.0723                 0.0235                 1.0316

                     10                     11                     12
                      A                      A                      A
 Frequencies --    198.9714               206.4636               266.9130
 Red. masses --      7.2242                 7.2081                 6.3910
 Frc consts  --      0.1685                 0.1810                 0.2683
 IR Inten    --      0.7823                 1.9847                 0.8295

                     13                     14                     15
                      A                      A                      A
 Frequencies --    289.9920               296.9607               341.9308
 Red. masses --      4.6208                 6.5738                 3.9855
 Frc consts  --      0.2290                 0.3416                 0.2745
 IR Inten    --      0.7466                 2.5321                 1.5819

                     16                     17                     18
                      A                      A                      A
 Frequencies --    358.9279               377.4961               391.8870
 Red. masses --      4.5821                10.7381                 8.2565
 Frc consts  --      0.3478                 0.9016                 0.7471
 IR Inten    --      7.5810                 9.2495                 3.3078

                     19                     20                     21
                      A                      A                      A
 Frequencies --    401.2994               414.0440               425.4885
 Red. masses --      6.3934                 3.0042                10.0952
 Frc consts  --      0.6066                 0.3034                 1.0768
 IR Inten    --      6.7608                 0.1599                 2.2712

                     22                     23                     24
                      A                      A                      A
 Frequencies --    441.0059               469.2295               485.5007
 Red. masses --      5.0841                 4.6993                 2.6653
 Frc consts  --      0.5826                 0.6096                 0.3701
 IR Inten    --      4.1253                 6.2815                14.6933

                     25                     26                     27
                      A                      A                      A
 Frequencies --    505.8256               554.4049               589.5967
 Red. masses --     11.0635                 5.4907                 8.7146
 Frc consts  --      1.6678                 0.9943                 1.7849
 IR Inten    --      0.7423                 4.4206                 9.8032

                     28                     29                     30
                      A                      A                      A
 Frequencies --    627.4460               653.1163               667.0424
 Red. masses --      5.5600                 6.9997                 6.8548
 Frc consts  --      1.2897                 1.7592                 1.7970
 IR Inten    --      7.5436                 1.7834                 5.7638

                     31                     32                     33
                      A                      A                      A
 Frequencies --    700.4300               707.6553               711.2095
 Red. masses --      4.7507                 3.6983                 3.3270
 Frc consts  --      1.3732                 1.0912                 0.9915
 IR Inten    --     11.7475                 0.2904                25.5379

                     34                     35                     36
                      A                      A                      A
 Frequencies --    715.2586               760.8280               769.6177
 Red. masses --      7.1820                 1.1900                 2.0270
 Frc consts  --      2.1648                 0.4058                 0.7074
 IR Inten    --      2.6308               115.4044                 0.7547

                     37                     38                     39
                      A                      A                      A
 Frequencies --    786.7814               804.2013               808.7530
 Red. masses --      3.0115                 1.8234                 2.8366
 Frc consts  --      1.0983                 0.6948                 1.0931
 IR Inten    --      3.8287                23.7426                10.6228

                     40                     41                     42
                      A                      A                      A
 Frequencies --    829.5482               835.7408               871.4880
 Red. masses --      8.4791                 1.2662                 1.4149
 Frc consts  --      3.4378                 0.5211                 0.6331
 IR Inten    --     19.9959                 0.9795                 0.2179

                     43                     44                     45
                      A                      A                      A
 Frequencies --    884.7455               938.6899               970.0129
 Red. masses --      6.9948                 1.2816                 1.3373
 Frc consts  --      3.2260                 0.6654                 0.7413
 IR Inten    --     22.8802                 0.1829                 0.3205

                     46                     47                     48
                      A                      A                      A
 Frequencies --    976.4708               984.9109               999.5685
 Red. masses --      1.3388                 1.2910                 1.4114
 Frc consts  --      0.7521                 0.7379                 0.8309
 IR Inten    --      1.6794                 0.5764                 0.3170

                     49                     50                     51
                      A                      A                      A
 Frequencies --   1027.1007              1031.0174              1054.0332
 Red. masses --      4.4896                 3.1044                 2.5548
 Frc consts  --      2.7905                 1.9443                 1.6723
 IR Inten    --     56.6555                 6.9159                14.8810

                     52                     53                     54
                      A                      A                      A
 Frequencies --   1055.8239              1090.8129              1103.3799
 Red. masses --      1.4973                 4.3115                 2.5599
 Frc consts  --      0.9834                 3.0226                 1.8362
 IR Inten    --     14.5632                53.6429                11.5149

                     55                     56                     57
                      A                      A                      A
 Frequencies --   1136.7631              1142.8119              1159.0859
 Red. masses --      1.3163                 1.9181                 1.8350
 Frc consts  --      1.0022                 1.4759                 1.4525
 IR Inten    --      5.1333                 2.8582                 8.2086

                     58                     59                     60
                      A                      A                      A
 Frequencies --   1202.8790              1204.2350              1228.6856
 Red. masses --      2.4654                 1.1596                 2.9914
 Frc consts  --      2.1018                 0.9908                 2.6607
 IR Inten    --     25.5316                 6.9119                 0.6841

                     61                     62                     63
                      A                      A                      A
 Frequencies --   1234.6735              1262.8372              1309.9007
 Red. masses --      2.9787                 2.1917                 4.9302
 Frc consts  --      2.6754                 2.0593                 4.9842
 IR Inten    --      4.4626                 3.1447                 6.1538

                     64                     65                     66
                      A                      A                      A
 Frequencies --   1326.7851              1332.5663              1352.0957
 Red. masses --      2.0923                 1.4771                 9.7295
 Frc consts  --      2.1701                 1.5454                10.4798
 IR Inten    --     43.2099                 3.7505                 8.5126

                     67                     68                     69
                      A                      A                      A
 Frequencies --   1407.7984              1425.4201              1427.8093
 Red. masses --      1.2546                 2.7515                 2.7004
 Frc consts  --      1.4649                 3.2939                 3.2435
 IR Inten    --      2.5961               371.2937               169.8541

                     70                     71                     72
                      A                      A                      A
 Frequencies --   1465.1699              1478.9747              1486.6974
 Red. masses --      2.8263                 3.1838                 1.0478
 Frc consts  --      3.5748                 4.1031                 1.3645
 IR Inten    --     14.7931                77.4275                 6.5387

                     73                     74                     75
                      A                      A                      A
 Frequencies --   1494.4155              1520.6761              1532.0947
 Red. masses --      1.0979                 2.2949                 5.2984
 Frc consts  --      1.4446                 3.1267                 7.3277
 IR Inten    --     10.7295                93.3125               236.8728

                     76                     77                     78
                      A                      A                      A
 Frequencies --   1559.0117              1570.7024              1595.7023
 Red. masses --      4.9673                 5.1042                 5.5835
 Frc consts  --      7.1133                 7.4193                 8.3765
 IR Inten    --    183.1770                78.4674                 0.6414

                     79                     80                     81
                      A                      A                      A
 Frequencies --   1609.8617              1633.9756              1637.7777
 Red. masses --      6.2625                 6.5320                 5.8611
 Frc consts  --      9.5627                10.2751                 9.2628
 IR Inten    --     16.3473                37.7373                39.3950

                     82                     83                     84
                      A                      A                      A
 Frequencies --   3001.3290              3051.3255              3079.7166
 Red. masses --      1.0428                 1.0914                 1.1015
 Frc consts  --      5.5346                 5.9871                 6.1551
 IR Inten    --     91.2271                33.3108                24.5629

                     85                     86                     87
                      A                      A                      A
 Frequencies --   3134.2009              3137.6976              3140.1040
 Red. masses --      1.0868                 1.0849                 1.0887
 Frc consts  --      6.2902                 6.2933                 6.3248
 IR Inten    --     32.5620                14.8220                28.3960

                     88                     89                     90
                      A                      A                      A
 Frequencies --   3156.7317              3159.8275              3183.1904
 Red. masses --      1.0912                 1.0928                 1.0918
 Frc consts  --      6.4063                 6.4288                 6.5178
 IR Inten    --     47.1797                29.5839                11.6067

                     91                     92                     93
                      A                      A                      A
 Frequencies --   3186.2439              3191.6595              3457.4768
 Red. masses --      1.0929                 1.0913                 1.0632
 Frc consts  --      6.5371                 6.5500                 7.4885
 IR Inten    --     24.2827                 2.5446               107.5139

 - Thermochemistry -
 -------------------
 Temperature   298.150 Kelvin.  Pressure   1.00000 Atm.
 Atom     1 has atomic number  6 and mass  12.00000

 Molecular mass:   296.05072 amu.
 Principal axes and moments of inertia in atomic units:
                           1         2         3
     Eigenvalues --  3295.19377********************
           X           -0.52346   0.41945   0.74165
           Y            0.84134   0.39203   0.37210
           Z           -0.13467   0.81876  -0.55812
 This molecule is an asymmetric top.
 Rotational symmetry number  1.
 Warning -- assumption of classical behavior for rotation
           may cause significant error
 Rotational temperatures (Kelvin)      0.02628     0.00769     0.00708
 Rotational constants (GHZ):           0.54769     0.16025     0.14755
 Zero-point vibrational energy     638422.9 (Joules/Mol)
                                  152.58673 (Kcal/Mol)
 Warning -- explicit consideration of  27 degrees of freedom as
           vibrations may cause significant error
 Vibrational temperatures:     18.53    38.72    45.72    50.32   119.84
          (Kelvin)            148.00   157.60   218.21   261.19   286.28
                              297.06   384.03   417.23   427.26   491.96
                              516.42   543.13   563.84   577.38   595.72
                              612.18   634.51   675.12   698.53   727.77
                              797.67   848.30   902.75   939.69   959.73
                             1007.76  1018.16  1023.27  1029.10  1094.66
                             1107.31  1132.00  1157.07  1163.62  1193.53
                             1202.44  1253.88  1272.95  1350.57  1395.63
                             1404.92  1417.07  1438.16  1477.77  1483.40
                             1516.52  1519.10  1569.44  1587.52  1635.55
                             1644.25  1667.67  1730.67  1732.63  1767.80
                             1776.42  1816.94  1884.65  1908.95  1917.27
                             1945.36  2025.51  2050.86  2054.30  2108.05
                             2127.91  2139.03  2150.13  2187.91  2204.34
                             2243.07  2259.89  2295.86  2316.23  2350.93
                             2356.40  4318.24  4390.18  4431.03  4509.42
                             4514.45  4517.91  4541.83  4546.29  4579.90
                             4584.29  4592.09  4974.54

 Zero-point correction=                           0.243162 (Hartree/Particle)
 Thermal correction to Energy=                    0.261138
 Thermal correction to Enthalpy=                  0.262082
 Thermal correction to Gibbs Free Energy=         0.193449
 Sum of electronic and zero-point Energies=          -1279.000431
 Sum of electronic and thermal Energies=             -1278.982456
 Sum of electronic and thermal Enthalpies=           -1278.981511
 Sum of electronic and thermal Free Energies=        -1279.050144

                     E (Thermal)             CV                S
                      KCal/Mol        Cal/Mol-Kelvin    Cal/Mol-Kelvin
 Total                  163.867             69.053            144.450
 Electronic               0.000              0.000              1.377
 Translational            0.889              2.981             42.953
 Rotational               0.889              2.981             34.472
 Vibrational            162.089             63.092             65.647
 Vibration     1          0.593              1.987              7.508
 Vibration     2          0.593              1.984              6.045
 Vibration     3          0.594              1.983              5.715
 Vibration     4          0.594              1.982              5.525
 Vibration     5          0.600              1.961              3.812
 Vibration     6          0.605              1.947              3.399
 Vibration     7          0.606              1.942              3.277
 Vibration     8          0.619              1.901              2.651
 Vibration     9          0.630              1.865              2.313
 Vibration    10          0.637              1.841              2.143
 Vibration    11          0.641              1.831              2.075
 Vibration    12          0.672              1.734              1.616
 Vibration    13          0.686              1.692              1.474
 Vibration    14          0.691              1.679              1.434
 Vibration    15          0.721              1.592              1.203
 Vibration    16          0.734              1.557              1.127
 Vibration    17          0.748              1.518              1.049
 Vibration    18          0.759              1.488              0.993
 Vibration    19          0.767              1.467              0.958
 Vibration    20          0.778              1.440              0.912
 Vibration    21          0.787              1.415              0.874
 Vibration    22          0.801              1.381              0.823
 Vibration    23          0.826              1.318              0.740
 Vibration    24          0.842              1.282              0.695
 Vibration    25          0.861              1.237              0.644
 Vibration    26          0.910              1.130              0.535
 Vibration    27          0.947              1.054              0.468

                           ! Non-Optimized Parameters !
 Normal termination of Gaussian 16 at Thu Dec 28 23:04:43 2023.
