 Gaussian 16, Revision A.03,
 Gaussian 16:  ES64L-G16RevA.03 25-Dec-2016

 --------------------------------------
 #P UB3LYP/6-311++G(d,p) nosym opt freq
 --------------------------------------

 -------
 Radical
 -------
 Symbolic Z-matrix:
 Charge = -1 Multiplicity = 2

 SCF Done:  E(UB3LYP) =  -1069.19948854     A.U. after   22 cycles
 SCF Done:  E(UB3LYP) =  -1069.21126116     A.U. after   20 cycles
 SCF Done:  E(UB3LYP) =  -1069.21182148     A.U. after   18 cycles
 SCF Done:  E(UB3LYP) =  -1069.21155713     A.U. after   18 cycles
 SCF Done:  E(UB3LYP) =  -1069.21211558     A.U. after   16 cycles
 SCF Done:  E(UB3LYP) =  -1069.21212388     A.U. after   15 cycles
 SCF Done:  E(UB3LYP) =  -1069.21212279     A.U. after   17 cycles
 SCF Done:  E(UB3LYP) =  -1069.21213180     A.U. after   15 cycles
 SCF Done:  E(UB3LYP) =  -1069.21213312     A.U. after   12 cycles
 SCF Done:  E(UB3LYP) =  -1069.21213367     A.U. after   14 cycles
 SCF Done:  E(UB3LYP) =  -1069.21213372     A.U. after   10 cycles
 Optimization completed.
    -- Stationary point found.
 Normal termination of Gaussian 16 at Wed Dec 20 01:52:32 2023.

 ----------------------------------------------------------------------
 #P Geom=AllCheck Guess=TCheck SCRF=Check GenChk UB3LYP/6-311++G(d,p) F
 req
 ----------------------------------------------------------------------

 Structure from the checkpoint file:  "115-rad.chk"
 -------
 Radical
 -------
 Charge = -1 Multiplicity = 2

                          Input orientation:
 ---------------------------------------------------------------------
 Center     Atomic      Atomic             Coordinates (Angstroms)
 Number     Number       Type             X           Y           Z
 ---------------------------------------------------------------------
      1          6           0       -2.194933   -3.864498    1.207133
      2          6           0       -0.756111   -3.867473    1.389764
      3          6           0       -0.017893   -2.736108    1.586491
      4          6           0       -0.613798   -1.418692    1.628929
      5          6           0       -2.060237   -1.385265    1.437462
      6          6           0       -2.786612   -2.532959    1.247167
      7          8           0       -2.857909   -4.915962    1.035253
      8          8           0        0.053051   -0.366992    1.813691
      9         17           0       -4.541995   -2.444640    1.050348
     10          6           0       -2.691147   -0.029087    1.442941
     11          8           0       -2.923136    0.649438    0.471658
     12          8           0       -2.971148    0.379808    2.704404
     13          6           0       -3.508401    1.701653    2.818832
     14          1           0       -0.286744   -4.846451    1.362461
     15          1           0        1.058604   -2.781508    1.722124
     16          1           0       -3.659708    1.865038    3.885197
     17          1           0       -4.456132    1.783053    2.281740
     18          1           0       -2.807120    2.435607    2.416305
 ---------------------------------------------------------------------

 SCF Done:  E(UB3LYP) =  -1069.21213372     A.U. after    2 cycles

 Alpha  occ. eigenvalues -- -101.42427 -19.05811 -19.00024 -18.95215 -18.95198
 Alpha  occ. eigenvalues --  -10.19086 -10.12562 -10.10613 -10.10317 -10.10258
 Alpha  occ. eigenvalues --  -10.06415 -10.04788 -10.04599  -9.33875  -7.10306
 Alpha  occ. eigenvalues --   -7.09399  -7.09324  -0.99819  -0.90999  -0.87826
 Alpha  occ. eigenvalues --   -0.87503  -0.74923  -0.69201  -0.65051  -0.60932
 Alpha  occ. eigenvalues --   -0.56334  -0.50862  -0.45887  -0.45041  -0.39863
 Alpha  occ. eigenvalues --   -0.38126  -0.36807  -0.35789  -0.34343  -0.32424
 Alpha  occ. eigenvalues --   -0.30838  -0.29283  -0.28609  -0.28121  -0.26502
 Alpha  occ. eigenvalues --   -0.25410  -0.25270  -0.24706  -0.21982  -0.19894
 Alpha  occ. eigenvalues --   -0.18721  -0.17494  -0.15656  -0.13221  -0.11854
 Alpha  occ. eigenvalues --   -0.11459  -0.03960
 Alpha virt. eigenvalues --    0.07774   0.09955   0.10300   0.11299   0.11537
 Alpha virt. eigenvalues --    0.11698   0.12269   0.12793   0.13995   0.14791
 Alpha virt. eigenvalues --    0.16509   0.17085   0.17260   0.17779   0.18131

  Beta  occ. eigenvalues -- -101.42423 -19.05808 -19.00013 -18.94479 -18.94437
  Beta  occ. eigenvalues --  -10.19093 -10.12559 -10.10456 -10.10232 -10.10169
  Beta  occ. eigenvalues --  -10.06292 -10.04691 -10.04488  -9.33872  -7.10312
  Beta  occ. eigenvalues --   -7.09379  -7.09323  -0.99806  -0.90979  -0.86566
  Beta  occ. eigenvalues --   -0.86214  -0.74611  -0.68766  -0.64876  -0.60775
  Beta  occ. eigenvalues --   -0.55384  -0.50557  -0.45632  -0.44784  -0.39683
  Beta  occ. eigenvalues --   -0.38038  -0.36755  -0.35622  -0.33992  -0.32264
  Beta  occ. eigenvalues --   -0.30734  -0.28501  -0.27734  -0.27376  -0.26243
  Beta  occ. eigenvalues --   -0.25085  -0.24536  -0.22832  -0.20761  -0.19852
  Beta  occ. eigenvalues --   -0.18670  -0.17319  -0.12738  -0.11993  -0.11149
  Beta  occ. eigenvalues --   -0.10772
  Beta virt. eigenvalues --    0.03367   0.07790   0.09981   0.11238   0.11358
  Beta virt. eigenvalues --    0.11571   0.12126   0.12350   0.12836   0.14048
  Beta virt. eigenvalues --    0.16128   0.16675   0.17232   0.17524   0.18047

 Mulliken charges and spin densities:
               1          2
     1  C   -0.855857   0.092884
     2  C    0.094926   0.080873
     3  C    0.287948   0.106936
     4  C   -1.007755   0.034988
     5  C    0.691648   0.094357
     6  C    0.684281   0.051357
     7  O   -0.344074   0.274889
     8  O   -0.356382   0.268615
     9  Cl   0.419151   0.007591
    10  C   -1.000195  -0.000662
    11  O   -0.183360   0.002383
    12  O    0.035406  -0.001166
    13  C   -0.230327   0.001524
    14  H    0.158559  -0.006787
    15  H    0.154431  -0.008036
    16  H    0.131733   0.000462
    17  H    0.152987   0.000117
    18  H    0.166879  -0.000326
 Sum of Mulliken charges =  -1.00000   1.00000

 Dipole moment (field-independent basis, Debye):
    X=              9.6776    Y=             11.0327    Z=             -5.0496  Tot=             15.5201
 Quadrupole moment (field-independent basis, Debye-Ang):
   XX=           -117.7706   YY=           -134.1177   ZZ=            -93.0433
   XY=            -37.2821   XZ=              4.8576   YZ=             14.6009

  Exact polarizability: 154.950   8.754 175.250   8.809  13.990  87.051
 Approx polarizability: 238.987  48.764 273.487  20.346  17.175 136.288

                      1                      2                      3
                      A                      A                      A
 Frequencies --     36.1280                68.9586                96.3736
 Red. masses --      5.6511                 8.3202                 3.7071
 Frc consts  --      0.0043                 0.0233                 0.0203
 IR Inten    --      2.7495                 0.5758                 0.6912

                      4                      5                      6
                      A                      A                      A
 Frequencies --    118.0578               144.5777               150.0933
 Red. masses --      6.6897                 1.2237                 7.8987
 Frc consts  --      0.0549                 0.0151                 0.1048
 IR Inten    --      9.9394                 0.0625                 0.8662

                      7                      8                      9
                      A                      A                      A
 Frequencies --    195.9655               229.2556               290.2540
 Red. masses --      7.2825                 9.5429                 6.3218
 Frc consts  --      0.1648                 0.2955                 0.3138
 IR Inten    --      1.2247                 0.0365                 4.2529

                     10                     11                     12
                      A                      A                      A
 Frequencies --    313.2091               322.4402               339.9910
 Red. masses --      7.5670                 5.2975                16.0170
 Frc consts  --      0.4374                 0.3245                 1.0909
 IR Inten    --      6.5758                 4.3466                 0.0813

                     13                     14                     15
                      A                      A                      A
 Frequencies --    385.0620               458.7391               517.1242
 Red. masses --      5.8893                10.9873                 9.6112
 Frc consts  --      0.5145                 1.3623                 1.5143
 IR Inten    --      4.1344                 5.6435                16.6016

                     16                     17                     18
                      A                      A                      A
 Frequencies --    554.1794               563.3798               632.1925
 Red. masses --      5.7626                 5.1579                 2.9853
 Frc consts  --      1.0427                 0.9645                 0.7030
 IR Inten    --      4.3106                 0.6389                 5.5945

                     19                     20                     21
                      A                      A                      A
 Frequencies --    694.5450               733.4226               757.0063
 Red. masses --      8.3052                 7.1789                 8.6314
 Frc consts  --      2.3605                 2.2752                 2.9143
 IR Inten    --      2.5897                11.2029                 1.8453

                     22                     23                     24
                      A                      A                      A
 Frequencies --    803.9741               824.9208               897.0640
 Red. masses --      5.8511                 2.0226                10.0600
 Frc consts  --      2.2283                 0.8109                 4.7697
 IR Inten    --     25.0135                35.4264                82.1462

                     25                     26                     27
                      A                      A                      A
 Frequencies --    926.0570               945.5643              1018.3027
 Red. masses --      7.1137                 1.2628                 6.2392
 Frc consts  --      3.5944                 0.6652                 3.8118
 IR Inten    --     36.8568                 0.0996                23.2337

                     28                     29                     30
                      A                      A                      A
 Frequencies --   1084.5107              1105.3441              1167.8156
 Red. masses --      3.3823                 2.4572                 1.2882
 Frc consts  --      2.3438                 1.7688                 1.0351
 IR Inten    --     93.4810                94.1990                 0.8315

                     31                     32                     33
                      A                      A                      A
 Frequencies --   1195.7539              1206.6809              1230.3367
 Red. masses --      2.0170                 1.6009                 5.7613
 Frc consts  --      1.6992                 1.3734                 5.1383
 IR Inten    --     77.8658                13.8313               289.4194

                     34                     35                     36
                      A                      A                      A
 Frequencies --   1324.4866              1407.0589              1460.3829
 Red. masses --      2.6419                 3.6308                 1.2060
 Frc consts  --      2.7306                 4.2352                 1.5155
 IR Inten    --     54.7549                67.2183                 3.7345

                     37                     38                     39
                      A                      A                      A
 Frequencies --   1479.7147              1495.9822              1500.7817
 Red. masses --      1.0464                 1.1823                 4.1447
 Frc consts  --      1.3499                 1.5589                 5.5002
 IR Inten    --      5.8261                19.8956                45.9553

                     40                     41                     42
                      A                      A                      A
 Frequencies --   1512.4480              1541.8392              1635.6359
 Red. masses --     10.7350                 8.0080                 8.0389
 Frc consts  --     14.4682                11.2164                12.6713
 IR Inten    --     25.5263               432.7522                19.5349

                     43                     44                     45
                      A                      A                      A
 Frequencies --   1778.2995              3034.0884              3101.0777
 Red. masses --     12.0334                 1.0295                 1.1059
 Frc consts  --     22.4207                 5.5839                 6.2663
 IR Inten    --    296.9914                61.4060                24.4495

                     46                     47                     48
                      A                      A                      A
 Frequencies --   3131.4443              3143.0944              3164.2542
 Red. masses --      1.1052                 1.0853                 1.0949
 Frc consts  --      6.3853                 6.3172                 6.4592
 IR Inten    --     26.8965                14.3971                33.5789

 - Thermochemistry -
 -------------------
 Temperature   298.150 Kelvin.  Pressure   1.00000 Atm.
 Atom     1 has atomic number  6 and mass  12.00000

 Molecular mass:   199.98764 amu.
 Principal axes and moments of inertia in atomic units:
                           1         2         3
     Eigenvalues --  1800.991832915.106364313.86778
           X           -0.13622   0.98629  -0.09313
           Y            0.97547   0.11713  -0.18637
           Z            0.17291   0.11623   0.97805
 This molecule is an asymmetric top.
 Rotational symmetry number  1.
 Warning -- assumption of classical behavior for rotation
           may cause significant error
 Rotational temperatures (Kelvin)      0.04809     0.02971     0.02008
 Rotational constants (GHZ):           1.00208     0.61910     0.41836
 Zero-point vibrational energy     303360.2 (Joules/Mol)
                                   72.50483 (Kcal/Mol)
 Warning -- explicit consideration of  17 degrees of freedom as
           vibrations may cause significant error
 Vibrational temperatures:     51.98    99.22   138.66   169.86   208.02
          (Kelvin)            215.95   281.95   329.85   417.61   450.64
                              463.92   489.17   554.02   660.02   744.03
                              797.34   810.58   909.58   999.30  1055.23
                             1089.16  1156.74  1186.88  1290.68  1332.39
                             1360.46  1465.11  1560.37  1590.34  1680.23
                             1720.42  1736.14  1770.18  1905.64  2024.44
                             2101.17  2128.98  2152.38  2159.29  2176.08
                             2218.36  2353.32  2558.58  4365.38  4461.76
                             4505.45  4522.21  4552.66

 Zero-point correction=                           0.115544 (Hartree/Particle)
 Thermal correction to Energy=                    0.127572
 Thermal correction to Enthalpy=                  0.128516
 Thermal correction to Gibbs Free Energy=         0.075436
 Sum of electronic and zero-point Energies=          -1069.096590
 Sum of electronic and thermal Energies=             -1069.084562
 Sum of electronic and thermal Enthalpies=           -1069.083618
 Sum of electronic and thermal Free Energies=        -1069.136698

                     E (Thermal)             CV                S
                      KCal/Mol        Cal/Mol-Kelvin    Cal/Mol-Kelvin
 Total                   80.052             42.590            111.716
 Electronic               0.000              0.000              1.377
 Translational            0.889              2.981             41.784
 Rotational               0.889              2.981             31.494
 Vibrational             78.275             36.628             37.061
 Vibration     1          0.594              1.982              5.461
 Vibration     2          0.598              1.969              4.183
 Vibration     3          0.603              1.952              3.526
 Vibration     4          0.608              1.934              3.132
 Vibration     5          0.616              1.909              2.742
 Vibration     6          0.618              1.903              2.671
 Vibration     7          0.636              1.846              2.171
 Vibration     8          0.652              1.796              1.885
 Vibration     9          0.686              1.692              1.472
 Vibration    10          0.701              1.648              1.345
 Vibration    11          0.707              1.631              1.298
 Vibration    12          0.720              1.596              1.212
 Vibration    13          0.754              1.502              1.019
 Vibration    14          0.817              1.342              0.770
 Vibration    15          0.872              1.212              0.617
 Vibration    16          0.910              1.131              0.536
 Vibration    17          0.919              1.111              0.517

 Optimization completed.
    -- Stationary point found.
 Normal termination of Gaussian 16 at Wed Dec 20 02:07:44 2023.
