 Gaussian 16, Revision A.03,
 Gaussian 16:  ES64L-G16RevA.03 25-Dec-2016

 ----------------------------------------------------------------
 #P UB3LYP/6-311++G(d,p) SCRF=(PCM,Solvent=n,n-DiMethylFormamide)
 ----------------------------------------------------------------

 ------------------
 Radical PCM in DMF
 ------------------
 Symbolic Z-matrix:
 Charge = -1 Multiplicity = 2

                         Standard orientation:
 ---------------------------------------------------------------------
 Center     Atomic      Atomic             Coordinates (Angstroms)
 Number     Number       Type             X           Y           Z
 ---------------------------------------------------------------------
      1          6           0       -3.826851   -0.611473    1.264640
      2          6           0       -3.403352    0.174897    0.000082
      3          6           0       -4.173550    1.509575    0.000110
      4          6           0       -3.827128   -0.611260   -1.264517
      5          6           0       -1.876941    0.384282   -0.000002
      6          6           0       -1.317629    1.633174   -0.000231
      7          6           0        0.102398    1.919750   -0.000191
      8          8           0        0.538046    3.095324   -0.000229
      9          6           0        0.958555    0.741407    0.000009
     10          6           0        0.430742   -0.526181    0.000046
     11         35           0        1.543760   -2.091795   -0.000141
     12          6           0       -1.006904   -0.799090    0.000146
     13          8           0       -1.450354   -1.973246    0.000129
     14         35           0        2.845907    1.088296    0.000144
     15          1           0       -4.913183   -0.763466    1.266883
     16          1           0       -3.561880   -0.053253    2.168532
     17          1           0       -3.333077   -1.581813    1.296825
     18          1           0       -3.948954    2.111192    0.885580
     19          1           0       -5.249197    1.304196    0.000285
     20          1           0       -3.949149    2.110991   -0.885545
     21          1           0       -3.562552   -0.052755   -2.168355
     22          1           0       -4.913451   -0.763360   -1.266402
     23          1           0       -3.333333   -1.581568   -1.297208
     24          1           0       -1.931140    2.525199   -0.000474
 ---------------------------------------------------------------------

 SCF Done:  E(UB3LYP) =  -5686.10284962     A.U. after   18 cycles

 The electronic state is 2-A.
 Alpha  occ. eigenvalues -- -482.82936-482.82854 -62.48211 -62.48129 -56.30241
 Alpha  occ. eigenvalues --  -56.30160 -56.29878 -56.29837 -56.29797 -56.29754
 Alpha  occ. eigenvalues --  -19.08736 -19.08574 -10.23803 -10.23663 -10.22991
 Alpha  occ. eigenvalues --  -10.22844 -10.18684 -10.18240 -10.16747 -10.15304
 Alpha  occ. eigenvalues --  -10.14814 -10.14813  -8.69178  -8.69096  -6.52298
 Alpha  occ. eigenvalues --   -6.52219  -6.51081  -6.51002  -6.50967  -6.50880
 Alpha  occ. eigenvalues --   -2.63398  -2.63318  -2.63068  -2.62990  -2.62982
 Alpha  occ. eigenvalues --   -2.62898  -2.62011  -2.62010  -2.61928  -2.61927
 Alpha  occ. eigenvalues --   -1.01586  -1.01314  -0.86111  -0.82844  -0.79249
 Alpha  occ. eigenvalues --   -0.78170  -0.71623  -0.68896  -0.67788  -0.67652
 Alpha  occ. eigenvalues --   -0.60305  -0.57850  -0.53096  -0.49907  -0.47245
 Alpha  occ. eigenvalues --   -0.44857  -0.43780  -0.43132  -0.42694  -0.42638
 Alpha  occ. eigenvalues --   -0.41008  -0.39782  -0.39500  -0.37534  -0.37306
 Alpha  occ. eigenvalues --   -0.37168  -0.35923  -0.33997  -0.33845  -0.32825
 Alpha  occ. eigenvalues --   -0.32325  -0.30416  -0.30410  -0.28006  -0.27715
 Alpha  occ. eigenvalues --   -0.25377  -0.24675  -0.24414  -0.17057
 Alpha virt. eigenvalues --   -0.03468  -0.01917  -0.00336   0.00922   0.01153
 Alpha virt. eigenvalues --    0.01412   0.01717   0.02391   0.03174   0.03828
 Alpha virt. eigenvalues --    0.03980   0.04256   0.04460   0.05078   0.05826

  Beta  occ. eigenvalues -- -482.82934-482.82853 -62.48209 -62.48128 -56.30242
  Beta  occ. eigenvalues --  -56.30162 -56.29871 -56.29837 -56.29790 -56.29753
  Beta  occ. eigenvalues --  -19.08064 -19.07888 -10.23667 -10.23536 -10.22840
  Beta  occ. eigenvalues --  -10.22692 -10.18689 -10.18147 -10.16675 -10.15304
  Beta  occ. eigenvalues --  -10.14808 -10.14807  -8.69175  -8.69094  -6.52302
  Beta  occ. eigenvalues --   -6.52222  -6.51069  -6.50991  -6.50966  -6.50880
  Beta  occ. eigenvalues --   -2.63398  -2.63319  -2.63062  -2.62985  -2.62984
  Beta  occ. eigenvalues --   -2.62900  -2.62005  -2.62004  -2.61922  -2.61921
  Beta  occ. eigenvalues --   -1.00421  -1.00122  -0.85634  -0.82725  -0.79098
  Beta  occ. eigenvalues --   -0.77946  -0.71435  -0.68416  -0.67766  -0.67135
  Beta  occ. eigenvalues --   -0.59948  -0.57456  -0.52889  -0.49694  -0.46978
  Beta  occ. eigenvalues --   -0.44587  -0.43443  -0.42785  -0.42530  -0.41395
  Beta  occ. eigenvalues --   -0.40571  -0.39200  -0.38572  -0.37253  -0.36986
  Beta  occ. eigenvalues --   -0.36385  -0.35360  -0.33866  -0.33275  -0.32280
  Beta  occ. eigenvalues --   -0.32148  -0.30373  -0.29973  -0.27658  -0.25433
  Beta  occ. eigenvalues --   -0.24759  -0.24007  -0.23851
  Beta virt. eigenvalues --   -0.09985  -0.03336  -0.00452  -0.00319   0.01030
  Beta virt. eigenvalues --    0.01175   0.01751   0.01984   0.03184   0.03870
  Beta virt. eigenvalues --    0.04007   0.04059   0.04340   0.04591   0.05104

 Mulliken charges and spin densities:
               1          2
     1  C   -0.682674   0.010098
     2  C    0.624095  -0.028491
     3  C   -0.492434   0.000770
     4  C   -0.682845   0.010097
     5  C    1.238171   0.097598
     6  C   -0.504536   0.039484
     7  C   -0.764993   0.091805
     8  O   -0.420916   0.240696
     9  C    0.750280   0.116394
    10  C   -0.337461   0.084785
    11  Br  -0.123055   0.005673
    12  C   -0.715013   0.080093
    13  O   -0.353547   0.251677
    14  Br  -0.114173   0.007002
    15  H    0.152052   0.000179
    16  H    0.133799   0.000445
    17  H    0.180090  -0.001176
    18  H    0.134224  -0.000248
    19  H    0.171949   0.000087
    20  H    0.134202  -0.000248
    21  H    0.133798   0.000443
    22  H    0.152046   0.000180
    23  H    0.180101  -0.001175
    24  H    0.206840  -0.006168
 Sum of Mulliken charges =  -1.00000   1.00000

 Dipole moment (field-independent basis, Debye):
    X=             -2.1299    Y=             -1.8573    Z=              0.0000  Tot=              2.8259
 Quadrupole moment (field-independent basis, Debye-Ang):
   XX=           -119.8103   YY=           -148.0641   ZZ=           -113.4628
   XY=            -12.1724   XZ=              0.0011   YZ=              0.0019

 Normal termination of Gaussian 16 at Sun Jan 21 07:13:42 2024.
