 Gaussian 16, Revision A.03,
 Gaussian 16:  ES64L-G16RevA.03 25-Dec-2016

 ----------------------------------------------------------------------
 #P UB3LYP/6-311++G(d,p) nosym opt freq SCRF=(PCM,Solvent=n,n-DiMethylF
 ormamide)
 ----------------------------------------------------------------------

 -------
 Reduced
 -------
 Symbolic Z-matrix:
 Charge = -3 Multiplicity = 1

 SCF Done:  E(UB3LYP) =  -1312.65629920     A.U. after   18 cycles
 SCF Done:  E(UB3LYP) =  -1312.65938903     A.U. after   14 cycles
 SCF Done:  E(UB3LYP) =  -1312.65972953     A.U. after   14 cycles
 SCF Done:  E(UB3LYP) =  -1312.65977719     A.U. after   12 cycles
 SCF Done:  E(UB3LYP) =  -1312.65979739     A.U. after   12 cycles
 SCF Done:  E(UB3LYP) =  -1312.65979896     A.U. after   11 cycles
 SCF Done:  E(UB3LYP) =  -1312.65980442     A.U. after   11 cycles
 SCF Done:  E(UB3LYP) =  -1312.65980533     A.U. after   10 cycles
 SCF Done:  E(UB3LYP) =  -1312.65980537     A.U. after   10 cycles
 SCF Done:  E(UB3LYP) =  -1312.65980546     A.U. after    9 cycles
 SCF Done:  E(UB3LYP) =  -1312.65980547     A.U. after    8 cycles
 Optimization completed.
    -- Stationary point found.
 Normal termination of Gaussian 16 at Sat Feb 10 23:41:40 2024.

 ----------------------------------------------------------------------
 #P Geom=AllCheck Guess=TCheck SCRF=Check GenChk UB3LYP/6-311++G(d,p) F
 req
 ----------------------------------------------------------------------

 Structure from the checkpoint file:  "223-an.chk"
 -------
 Reduced
 -------
 Charge = -3 Multiplicity = 1

                          Input orientation:
 ---------------------------------------------------------------------
 Center     Atomic      Atomic             Coordinates (Angstroms)
 Number     Number       Type             X           Y           Z
 ---------------------------------------------------------------------
      1          6           0        2.735825    0.564907    0.225097
      2          6           0        2.695585   -0.626826    1.012213
      3          6           0        1.500016   -1.279988    1.171635
      4          6           0       -0.931564   -1.551440    0.791074
      5          8           0       -0.987664   -2.633624    1.515667
      6          6           0       -2.095573   -1.002280    0.141459
      7          6           0       -3.353300   -1.655761    0.282265
      8          6           0       -4.500951   -1.180884   -0.310147
      9          6           0       -4.450404    0.003803   -1.095394
     10          6           0       -3.252635    0.662273   -1.257662
     11          6           0       -2.043346    0.202520   -0.663052
     12          6           0       -0.819711    0.936176   -0.874262
     13          8           0       -0.772544    2.014268   -1.598715
     14          6           0        0.339113    0.386579   -0.225380
     15          6           0        1.593516    1.042939   -0.367440
     16          1           0        3.598246   -1.003299    1.479721
     17          1           0        1.451460   -2.183371    1.769472
     18          1           0       -3.375705   -2.557878    0.883146
     19          1           0       -5.442561   -1.705933   -0.180536
     20          1           0       -5.353365    0.383622   -1.563679
     21          1           0       -3.198668    1.565550   -1.855246
     22          1           0        1.625330    1.945768   -0.962605
     23          6           0        0.284244   -0.823043    0.580244
     24         16           0        4.307601    1.411178    0.015414
     25          8           0        5.217963    0.455122   -0.695801
     26          8           0        4.040433    2.643341   -0.786600
     27          8           0        4.808744    1.724001    1.393124
 ---------------------------------------------------------------------

 SCF Done:  E(UB3LYP) =  -1312.65980547     A.U. after    2 cycles

 Alpha  occ. eigenvalues --  -89.02758 -19.07432 -19.07298 -19.07297 -19.01867
 Alpha  occ. eigenvalues --  -19.01628 -10.17478 -10.17190 -10.16961 -10.15323
 Alpha  occ. eigenvalues --  -10.15270 -10.14947 -10.14885 -10.14867 -10.14670
 Alpha  occ. eigenvalues --  -10.14608 -10.13860 -10.13821 -10.13811 -10.13651
 Alpha  occ. eigenvalues --   -8.08672  -6.04962  -6.04946  -6.04806  -1.08837
 Alpha  occ. eigenvalues --   -0.95287  -0.94940  -0.93184  -0.92629  -0.83123
 Alpha  occ. eigenvalues --   -0.82312  -0.75836  -0.73049  -0.72294  -0.71178
 Alpha  occ. eigenvalues --   -0.64619  -0.62536  -0.59900  -0.56928  -0.55601
 Alpha  occ. eigenvalues --   -0.52649  -0.50478  -0.49738  -0.45989  -0.44579
 Alpha  occ. eigenvalues --   -0.43832  -0.43653  -0.42867  -0.42261  -0.40578
 Alpha  occ. eigenvalues --   -0.39884  -0.38426  -0.38103  -0.37223  -0.36586
 Alpha  occ. eigenvalues --   -0.35540  -0.34475  -0.32738  -0.32220  -0.31953
 Alpha  occ. eigenvalues --   -0.31845  -0.31585  -0.30839  -0.29874  -0.27748
 Alpha  occ. eigenvalues --   -0.27630  -0.27415  -0.23897  -0.23667  -0.22563
 Alpha  occ. eigenvalues --   -0.22148  -0.21496  -0.19986  -0.19404  -0.10879
 Alpha virt. eigenvalues --   -0.02912  -0.00286   0.00240   0.01078   0.01769
 Alpha virt. eigenvalues --    0.01866   0.02713   0.02961   0.04786   0.04828
 Alpha virt. eigenvalues --    0.04964   0.05319   0.05895   0.06271   0.06740

  Beta  occ. eigenvalues --  -89.02758 -19.07432 -19.07298 -19.07297 -19.01867
  Beta  occ. eigenvalues --  -19.01628 -10.17478 -10.17190 -10.16961 -10.15323
  Beta  occ. eigenvalues --  -10.15270 -10.14947 -10.14885 -10.14867 -10.14670
  Beta  occ. eigenvalues --  -10.14608 -10.13860 -10.13821 -10.13811 -10.13651
  Beta  occ. eigenvalues --   -8.08672  -6.04962  -6.04946  -6.04806  -1.08837
  Beta  occ. eigenvalues --   -0.95287  -0.94940  -0.93184  -0.92629  -0.83123
  Beta  occ. eigenvalues --   -0.82312  -0.75836  -0.73049  -0.72294  -0.71178
  Beta  occ. eigenvalues --   -0.64619  -0.62536  -0.59900  -0.56928  -0.55601
  Beta  occ. eigenvalues --   -0.52649  -0.50478  -0.49738  -0.45989  -0.44579
  Beta  occ. eigenvalues --   -0.43832  -0.43653  -0.42867  -0.42261  -0.40578
  Beta  occ. eigenvalues --   -0.39884  -0.38426  -0.38103  -0.37223  -0.36586
  Beta  occ. eigenvalues --   -0.35540  -0.34475  -0.32738  -0.32220  -0.31953
  Beta  occ. eigenvalues --   -0.31845  -0.31585  -0.30839  -0.29874  -0.27748
  Beta  occ. eigenvalues --   -0.27630  -0.27415  -0.23897  -0.23667  -0.22563
  Beta  occ. eigenvalues --   -0.22148  -0.21496  -0.19986  -0.19404  -0.10879
  Beta virt. eigenvalues --   -0.02912  -0.00286   0.00240   0.01078   0.01769
  Beta virt. eigenvalues --    0.01866   0.02713   0.02961   0.04786   0.04828
  Beta virt. eigenvalues --    0.04964   0.05319   0.05895   0.06271   0.06740

 Mulliken charges and spin densities:
               1          2
     1  C   -1.200675   0.000000
     2  C   -0.631120   0.000000
     3  C   -0.303824   0.000000
     4  C   -0.417383  -0.000000
     5  O   -0.674381   0.000000
     6  C    0.420665  -0.000000
     7  C   -0.013475   0.000000
     8  C   -0.507839   0.000000
     9  C   -0.496177   0.000000
    10  C   -0.025803   0.000000
    11  C    0.315039   0.000000
    12  C   -0.813398   0.000000
    13  O   -0.654891  -0.000000
    14  C    0.508959  -0.000000
    15  C    0.247110  -0.000000
    16  H    0.194831   0.000000
    17  H    0.144230  -0.000000
    18  H    0.147383   0.000000
    19  H    0.157764  -0.000000
    20  H    0.158435  -0.000000
    21  H    0.145065   0.000000
    22  H    0.194496   0.000000
    23  C    0.559225  -0.000000
    24  S    0.812748  -0.000000
    25  O   -0.400563  -0.000000
    26  O   -0.455072   0.000000
    27  O   -0.411349  -0.000000
 Sum of Mulliken charges =  -3.00000  -0.00000

 Dipole moment (field-independent basis, Debye):
    X=            -18.7357    Y=             -6.3873    Z=              0.5716  Tot=             19.8028
 Quadrupole moment (field-independent basis, Debye-Ang):
   XX=           -288.1987   YY=           -194.5630   ZZ=           -160.7665
   XY=            -48.1338   XZ=             -0.0983   YZ=             22.4543

  Exact polarizability: 623.423  47.360 338.710  70.428 -90.898 266.409
 Approx polarizability: 663.681  39.125 393.912  80.054-114.574 307.900

                      1                      2                      3
                      A                      A                      A
 Frequencies --     36.3774                49.8602                85.3429
 Red. masses --      9.0035                11.5266                 8.1054
 Frc consts  --      0.0070                 0.0169                 0.0348
 IR Inten    --      0.3118                 2.1399                22.3276

                      4                      5                      6
                      A                      A                      A
 Frequencies --    110.1070               125.4658               157.7110
 Red. masses --      9.6991                 4.2836                 5.5039
 Frc consts  --      0.0693                 0.0397                 0.0807
 IR Inten    --      0.3059                 0.7289                 2.4466

                      7                      8                      9
                      A                      A                      A
 Frequencies --    173.6906               215.4492               235.7193
 Red. masses --      9.5577                12.5299                 7.7097
 Frc consts  --      0.1699                 0.3427                 0.2524
 IR Inten    --      4.7746                 3.4259                17.9813

                     10                     11                     12
                      A                      A                      A
 Frequencies --    240.1064               291.4267               337.8261
 Red. masses --      6.2043                 8.8600                 7.7823
 Frc consts  --      0.2107                 0.4433                 0.5233
 IR Inten    --      0.1564                 3.3735                 0.4514

                     13                     14                     15
                      A                      A                      A
 Frequencies --    367.9248               379.4061               412.5570
 Red. masses --     11.2023                 7.9260                 7.4334
 Frc consts  --      0.8935                 0.6722                 0.7454
 IR Inten    --      0.7884                22.4806                 1.8840

                     16                     17                     18
                      A                      A                      A
 Frequencies --    413.2819               425.7176               460.7625
 Red. masses --      7.3005                 3.4327                 8.2449
 Frc consts  --      0.7347                 0.3666                 1.0313
 IR Inten    --      1.6625                 6.2596                30.4904

                     19                     20                     21
                      A                      A                      A
 Frequencies --    479.1076               490.5565               504.0303
 Red. masses --      3.4336                 5.8455                11.7011
 Frc consts  --      0.4644                 0.8288                 1.7514
 IR Inten    --      4.8877                16.8950                28.8669

                     22                     23                     24
                      A                      A                      A
 Frequencies --    517.2456               545.4068               591.5140
 Red. masses --     13.6334                 6.1897                12.1050
 Frc consts  --      2.1491                 1.0848                 2.4954
 IR Inten    --     20.2135                44.8375               468.0977

                     25                     26                     27
                      A                      A                      A
 Frequencies --    627.9712               635.2938               651.5297
 Red. masses --      7.0511                 4.5050                 7.3512
 Frc consts  --      1.6383                 1.0713                 1.8386
 IR Inten    --     42.7816                29.8138                82.0773

                     28                     29                     30
                      A                      A                      A
 Frequencies --    688.0550               695.0693               703.9459
 Red. masses --      6.4087                 2.3952                 8.1666
 Frc consts  --      1.7876                 0.6818                 2.3844
 IR Inten    --      7.0996               119.1647                41.2917

                     31                     32                     33
                      A                      A                      A
 Frequencies --    719.9328               771.4589               786.1637
 Red. masses --      4.5993                 1.5368                 2.1039
 Frc consts  --      1.4045                 0.5389                 0.7661
 IR Inten    --      1.1398                 8.6218                44.4327

                     34                     35                     36
                      A                      A                      A
 Frequencies --    812.7327               830.1085               858.2138
 Red. masses --      2.7332                 6.8388                 1.7493
 Frc consts  --      1.0637                 2.7765                 0.7591
 IR Inten    --     17.4481                 0.7515                 0.1271

                     37                     38                     39
                      A                      A                      A
 Frequencies --    920.9551               939.3325               941.4296
 Red. masses --      6.2903                 1.3584                10.9320
 Frc consts  --      3.1434                 0.7062                 5.7085
 IR Inten    --     47.7914                14.2057               358.8857

                     40                     41                     42
                      A                      A                      A
 Frequencies --    976.5238               978.8229               981.4400
 Red. masses --      1.3045                 1.3388                 6.3565
 Frc consts  --      0.7329                 0.7557                 3.6074
 IR Inten    --      0.2475                10.9711               359.6370

                     43                     44                     45
                      A                      A                      A
 Frequencies --    986.1986              1020.5243              1053.7241
 Red. masses --      1.2605                 2.0599                 2.3967
 Frc consts  --      0.7223                 1.2640                 1.5679
 IR Inten    --      0.8849               103.2822               490.0903

                     46                     47                     48
                      A                      A                      A
 Frequencies --   1079.0421              1088.6814              1101.0521
 Red. masses --     20.2592                 3.9439                 8.6006
 Frc consts  --     13.8979                 2.7541                 6.1432
 IR Inten    --    610.2633              1092.4904               296.4532

                     49                     50                     51
                      A                      A                      A
 Frequencies --   1117.4369              1132.1772              1162.2026
 Red. masses --      1.9273                 1.7249                 1.8630
 Frc consts  --      1.4179                 1.3027                 1.4826
 IR Inten    --    111.4398               209.2499               331.2656

                     52                     53                     54
                      A                      A                      A
 Frequencies --   1179.0053              1205.4156              1211.1305
 Red. masses --      2.4408                 1.6393                 2.0641
 Frc consts  --      1.9990                 1.4034                 1.7839
 IR Inten    --    149.4887                28.4122               312.0752

                     55                     56                     57
                      A                      A                      A
 Frequencies --   1247.0877              1308.1238              1327.2595
 Red. masses --      2.4287                 5.1761                 2.9780
 Frc consts  --      2.2255                 5.2186                 3.0909
 IR Inten    --    459.5549               139.8666              1008.9515

                     58                     59                     60
                      A                      A                      A
 Frequencies --   1350.6244              1359.3311              1432.3850
 Red. masses --      7.2017                 2.6836                 3.5025
 Frc consts  --      7.7402                 2.9216                 4.2340
 IR Inten    --    778.2144              1497.9429               254.2825

                     61                     62                     63
                      A                      A                      A
 Frequencies --   1451.6260              1462.7831              1476.2823
 Red. masses --      4.7343                 3.0916                 2.8865
 Frc consts  --      5.8778                 3.8976                 3.7065
 IR Inten    --     69.9110                39.8751                32.3151

                     64                     65                     66
                      A                      A                      A
 Frequencies --   1499.8069              1525.3200              1575.7693
 Red. masses --      5.0477                 5.7205                 8.0646
 Frc consts  --      6.6898                 7.8416                11.7983
 IR Inten    --      8.0345                66.9940                15.2613

                     67                     68                     69
                      A                      A                      A
 Frequencies --   1593.3234              1609.9431              3139.4966
 Red. masses --      6.0544                 5.2800                 1.0848
 Frc consts  --      9.0559                 8.0631                 6.2997
 IR Inten    --     15.1992                 8.0298                26.4073

                     70                     71                     72
                      A                      A                      A
 Frequencies --   3155.1854              3165.1582              3175.2562
 Red. masses --      1.0895                 1.0852                 1.0907
 Frc consts  --      6.3906                 6.4054                 6.4793
 IR Inten    --     39.4298                 1.7110                32.6778

                     73                     74                     75
                      A                      A                      A
 Frequencies --   3178.7549              3182.0162              3208.6259
 Red. masses --      1.0933                 1.0937                 1.0879
 Frc consts  --      6.5086                 6.5244                 6.5990
 IR Inten    --     95.2379                41.2477                 5.2744

 - Thermochemistry -
 -------------------
 Temperature   298.150 Kelvin.  Pressure   1.00000 Atm.
 Atom     1 has atomic number  6 and mass  12.00000

 Molecular mass:   287.00142 amu.
 Principal axes and moments of inertia in atomic units:
                           1         2         3
     Eigenvalues --  2205.03646********************
           X            0.96460  -0.18112  -0.19171
           Y            0.25849   0.79350   0.55095
           Z            0.05233  -0.58099   0.81222
 This molecule is an asymmetric top.
 Rotational symmetry number  1.
 Warning -- assumption of classical behavior for rotation
           may cause significant error
 Rotational temperatures (Kelvin)      0.03928     0.00806     0.00687
 Rotational constants (GHZ):           0.81846     0.16787     0.14318
 Zero-point vibrational energy     466102.9 (Joules/Mol)
                                  111.40127 (Kcal/Mol)
 Warning -- explicit consideration of  24 degrees of freedom as
           vibrations may cause significant error
 Vibrational temperatures:     52.34    71.74   122.79   158.42   180.52
          (Kelvin)            226.91   249.90   309.98   339.15   345.46
                              419.30   486.06   529.36   545.88   593.58
                              594.62   612.51   662.93   689.33   705.80
                              725.19   744.20   784.72   851.06   903.51
                              914.05   937.41   989.96  1000.05  1012.82
                             1035.82  1109.96  1131.11  1169.34  1194.34
                             1234.78  1325.05  1351.49  1354.51  1405.00
                             1408.31  1412.07  1418.92  1468.31  1516.07
                             1552.50  1566.37  1584.17  1607.74  1628.95
                             1672.15  1696.33  1734.32  1742.55  1794.28
                             1882.10  1909.63  1943.25  1955.77  2060.88
                             2088.57  2104.62  2124.04  2157.89  2194.60
                             2267.18  2292.44  2316.35  4517.04  4539.61
                             4553.96  4568.49  4573.52  4578.21  4616.50

 Zero-point correction=                           0.177529 (Hartree/Particle)
 Thermal correction to Energy=                    0.192777
 Thermal correction to Enthalpy=                  0.193721
 Thermal correction to Gibbs Free Energy=         0.134411
 Sum of electronic and zero-point Energies=          -1312.482276
 Sum of electronic and thermal Energies=             -1312.467028
 Sum of electronic and thermal Enthalpies=           -1312.466084
 Sum of electronic and thermal Free Energies=        -1312.525394

                     E (Thermal)             CV                S
                      KCal/Mol        Cal/Mol-Kelvin    Cal/Mol-Kelvin
 Total                  120.970             60.655            124.829
 Electronic               0.000              0.000              0.000
 Translational            0.889              2.981             42.861
 Rotational               0.889              2.981             34.057
 Vibrational            119.192             54.694             47.911
 Vibration     1          0.594              1.982              5.447
 Vibration     2          0.595              1.978              4.823
 Vibration     3          0.601              1.959              3.764
 Vibration     4          0.606              1.941              3.267
 Vibration     5          0.610              1.928              3.014
 Vibration     6          0.621              1.894              2.577
 Vibration     7          0.627              1.875              2.395
 Vibration     8          0.645              1.817              1.997
 Vibration     9          0.655              1.786              1.835
 Vibration    10          0.657              1.779              1.802
 Vibration    11          0.687              1.690              1.466
 Vibration    12          0.718              1.600              1.222
 Vibration    13          0.741              1.538              1.088
 Vibration    14          0.749              1.514              1.042
 Vibration    15          0.776              1.443              0.918
 Vibration    16          0.777              1.441              0.915
 Vibration    17          0.788              1.414              0.873
 Vibration    18          0.819              1.337              0.764
 Vibration    19          0.836              1.296              0.712
 Vibration    20          0.846              1.271              0.682
 Vibration    21          0.859              1.241              0.648
 Vibration    22          0.872              1.212              0.616
 Vibration    23          0.901              1.150              0.554
 Vibration    24          0.949              1.050              0.464

 Optimization completed.
    -- Stationary point found.
 Normal termination of Gaussian 16 at Sun Feb 11 00:23:29 2024.
