 Q-Chem 5.4, Q-Chem, Inc., Pleasanton, CA (2021)
 Q-Chem 5.4.0 for Intel X86 EM64T Linux

User input:
--------------------------------------------------------------
$molecule
-2 1
C                 -1.8184070000      1.9291280000     -5.1279430000
C                 -1.7255260000      0.6156030000     -5.5374510000
C                 -1.3060450000     -0.3815620000     -4.6105450000
C                 -1.5081090000      2.3308750000     -3.8020370000
C                 -1.0879070000      1.3214750000     -2.8632960000
C                 -0.9983300000     -0.0218090000     -3.3154950000
C                 -1.6114900000      3.7197020000     -3.4381120000
C                 -0.7702210000      1.6336280000     -1.4960730000
C                 -1.2617250000      4.0525310000     -2.0732290000
C                 -0.9030810000      3.0160190000     -1.1044050000
C                 -1.2840420000      5.4301520000     -1.6327940000
C                 -1.0050810000      5.7446430000     -0.3189670000
C                 -0.7098480000      4.7434450000      0.6382360000
C                 -0.6683780000      3.4054920000      0.2769150000
O                 -2.0089900000      4.5939080000     -4.3193590000
O                 -0.3793550000      0.6836200000     -0.6868470000
N                 -1.5363380000      6.4741900000     -2.5628790000
N                 -0.4400200000      2.4053640000      1.2240470000
C                  0.2616120000      2.6889200000      2.4440790000
H                 -2.1317430000      2.7139480000     -5.8087960000
H                 -1.9684400000      0.3409370000     -6.5627100000
H                 -1.2300000000     -1.4214500000     -4.9244050000
H                 -0.6767480000     -0.7566100000     -2.5846290000
H                 -0.9846440000      6.7930040000     -0.0243540000
H                 -0.5357570000      5.0319200000      1.6697700000
H                 -1.8752850000      6.0442460000     -3.4418210000
H                 -2.1769600000      7.1616960000     -2.1854990000
H                 -0.2659480000      1.5051990000      0.7346780000
H                 -0.3502810000      3.2566950000      3.1632720000
H                  1.1931520000      3.2751380000      2.2961530000
H                  0.5320860000      1.7435270000      2.9279790000
$end

$rem
BASIS  =  6-311++G(d,p)
GUI  =  2
JOB_TYPE  =  SP
METHOD  =  B3LYP
SCF_CONVERGENCE  = 8
SOLVENT_METHOD = sm12
$end

$smx
solvent dimethylformamide
charges CM5
$end

--------------------------------------------------------------

             Standard Nuclear Orientation (Angstroms)
    I     Atom           X                Y                Z
 ----------------------------------------------------------------
    1      C      -1.8184070000     1.9291280000    -5.1279430000
    2      C      -1.7255260000     0.6156030000    -5.5374510000
    3      C      -1.3060450000    -0.3815620000    -4.6105450000
    4      C      -1.5081090000     2.3308750000    -3.8020370000
    5      C      -1.0879070000     1.3214750000    -2.8632960000
    6      C      -0.9983300000    -0.0218090000    -3.3154950000
    7      C      -1.6114900000     3.7197020000    -3.4381120000
    8      C      -0.7702210000     1.6336280000    -1.4960730000
    9      C      -1.2617250000     4.0525310000    -2.0732290000
   10      C      -0.9030810000     3.0160190000    -1.1044050000
   11      C      -1.2840420000     5.4301520000    -1.6327940000
   12      C      -1.0050810000     5.7446430000    -0.3189670000
   13      C      -0.7098480000     4.7434450000     0.6382360000
   14      C      -0.6683780000     3.4054920000     0.2769150000
   15      O      -2.0089900000     4.5939080000    -4.3193590000
   16      O      -0.3793550000     0.6836200000    -0.6868470000
   17      N      -1.5363380000     6.4741900000    -2.5628790000
   18      N      -0.4400200000     2.4053640000     1.2240470000
   19      C       0.2616120000     2.6889200000     2.4440790000
   20      H      -2.1317430000     2.7139480000    -5.8087960000
   21      H      -1.9684400000     0.3409370000    -6.5627100000
   22      H      -1.2300000000    -1.4214500000    -4.9244050000
   23      H      -0.6767480000    -0.7566100000    -2.5846290000
   24      H      -0.9846440000     6.7930040000    -0.0243540000
   25      H      -0.5357570000     5.0319200000     1.6697700000
   26      H      -1.8752850000     6.0442460000    -3.4418210000
   27      H      -2.1769600000     7.1616960000    -2.1854990000
   28      H      -0.2659480000     1.5051990000     0.7346780000
   29      H      -0.3502810000     3.2566950000     3.1632720000
   30      H       1.1931520000     3.2751380000     2.2961530000
   31      H       0.5320860000     1.7435270000     2.9279790000
 ----------------------------------------------------------------

   18    -838.9909445963      2.85e-09  Convergence criterion met
 Total energy in the final basis set =     -839.2737306047

                    Orbital Energies (a.u.)
 --------------------------------------------------------------

 Alpha MOs
 -- Occupied --
-19.0377 -19.0368 -14.2955 -14.2900 -10.2004 -10.1993 -10.1953 -10.1951
-10.1946 -10.1736 -10.1731 -10.1687 -10.1687 -10.1616 -10.1612 -10.1570
-10.1565 -10.1559 -10.1554  -0.9579  -0.9544  -0.9121  -0.8894  -0.8457
 -0.8133  -0.7698  -0.7438  -0.7294  -0.7196  -0.6708  -0.6539  -0.6233
 -0.6122  -0.5696  -0.5504  -0.5327  -0.5136  -0.4985  -0.4773  -0.4622
 -0.4583  -0.4530  -0.4420  -0.4355  -0.4213  -0.4195  -0.3999  -0.3986
 -0.3938  -0.3761  -0.3724  -0.3662  -0.3654  -0.3605  -0.3437  -0.3382
 -0.3240  -0.3216  -0.3055  -0.2556  -0.2481  -0.2385  -0.2360  -0.2175
 -0.2087  -0.1823  -0.1204

          Ground-State Mulliken Net Atomic Charges

     Atom                 Charge (a.u.)
  ----------------------------------------
      1 C                     0.217799
      2 C                     1.661969
      3 C                     1.601696
      4 C                    -0.828633
      5 C                    -0.822538
      6 C                     0.046684
      7 C                    -2.434021
      8 C                    -2.087571
      9 C                    -1.174435
     10 C                    -1.098029
     11 C                    -1.081554
     12 C                     1.201940
     13 C                     1.451157
     14 C                    -1.291427
     15 O                    -0.286604
     16 O                    -0.301460
     17 N                    -0.243254
     18 N                    -0.212390
     19 C                     0.237647
     20 H                     0.168343
     21 H                     0.403405
     22 H                     0.406355
     23 H                     0.168409
     24 H                     0.282374
     25 H                     0.331007
     26 H                     0.291465
     27 H                     0.358876
     28 H                     0.300432
     29 H                     0.212100
     30 H                     0.176951
     31 H                     0.343306
  ----------------------------------------
  Sum of atomic charges =    -2.000000

                    Cartesian Multipole Moments
 -----------------------------------------------------------------
    Charge (ESU x 10^10)
                -9.6064
    Dipole Moment (Debye)
         X      10.7541      Y     -28.3763      Z      22.1242
       Tot      37.5546
    Quadrupole Moments (Debye-Ang)
        XX    -141.7991     XY      32.5283     YY    -249.8838
        XZ     -32.2502     YZ      69.2883     ZZ    -212.8989

 Total job time:  998.45s(wall), 7643.24s(cpu)
        *  Thank you very much for using Q-Chem.  Have a nice day.  *
