 Gaussian 16, Revision A.03,
 Gaussian 16:  ES64L-G16RevA.03 25-Dec-2016

 --------------------------------------
 #P UB3LYP/6-311++G(d,p) nosym opt freq
 --------------------------------------

 -------
 Reduced
 -------
 Symbolic Z-matrix:
 Charge = -2 Multiplicity = 1

 SCF Done:  E(UB3LYP) =  -839.000932011     A.U. after   32 cycles
 Optimization completed.
    -- Stationary point found.
 Normal termination of Gaussian 16 at Wed Dec 27 20:56:22 2023.

 ----------------------------------------------------------------------
 #P Geom=AllCheck Guess=TCheck SCRF=Check GenChk UB3LYP/6-311++G(d,p) F
 req
 ----------------------------------------------------------------------

 Structure from the checkpoint file:  "156-an.chk"
 -------
 Reduced
 -------
 Charge = -2 Multiplicity = 1

                          Input orientation:
 ---------------------------------------------------------------------
 Center     Atomic      Atomic             Coordinates (Angstroms)
 Number     Number       Type             X           Y           Z
 ---------------------------------------------------------------------
      1          6           0       -1.818407    1.929128   -5.127943
      2          6           0       -1.725526    0.615603   -5.537451
      3          6           0       -1.306045   -0.381562   -4.610545
      4          6           0       -1.508109    2.330875   -3.802037
      5          6           0       -1.087907    1.321475   -2.863296
      6          6           0       -0.998330   -0.021809   -3.315495
      7          6           0       -1.611490    3.719702   -3.438112
      8          6           0       -0.770221    1.633628   -1.496073
      9          6           0       -1.261725    4.052531   -2.073229
     10          6           0       -0.903081    3.016019   -1.104405
     11          6           0       -1.284042    5.430152   -1.632794
     12          6           0       -1.005081    5.744643   -0.318967
     13          6           0       -0.709848    4.743445    0.638236
     14          6           0       -0.668378    3.405492    0.276915
     15          8           0       -2.008990    4.593908   -4.319359
     16          8           0       -0.379355    0.683620   -0.686847
     17          7           0       -1.536338    6.474190   -2.562879
     18          7           0       -0.440020    2.405364    1.224047
     19          6           0        0.261612    2.688920    2.444079
     20          1           0       -2.131743    2.713948   -5.808796
     21          1           0       -1.968440    0.340937   -6.562710
     22          1           0       -1.230000   -1.421450   -4.924405
     23          1           0       -0.676748   -0.756610   -2.584629
     24          1           0       -0.984644    6.793004   -0.024354
     25          1           0       -0.535757    5.031920    1.669770
     26          1           0       -1.875285    6.044246   -3.441821
     27          1           0       -2.176960    7.161696   -2.185499
     28          1           0       -0.265948    1.505199    0.734678
     29          1           0       -0.350281    3.256695    3.163272
     30          1           0        1.193152    3.275138    2.296153
     31          1           0        0.532086    1.743527    2.927979
 ---------------------------------------------------------------------

 SCF Done:  E(UB3LYP) =  -839.000932011     A.U. after    1 cycles

 Alpha  occ. eigenvalues --  -18.79060 -18.79018 -14.05717 -14.04860  -9.97991
 Alpha  occ. eigenvalues --   -9.95319  -9.95000  -9.94759  -9.94596  -9.93279
 Alpha  occ. eigenvalues --   -9.93231  -9.92410  -9.92384  -9.91306  -9.91253
 Alpha  occ. eigenvalues --   -9.91212  -9.91172  -9.90758  -9.90706  -0.71126
 Alpha  occ. eigenvalues --   -0.70674  -0.67267  -0.64694  -0.60091  -0.56888
 Alpha  occ. eigenvalues --   -0.52384  -0.49912  -0.48959  -0.47731  -0.43462
 Alpha  occ. eigenvalues --   -0.40781  -0.37875  -0.36804  -0.32560  -0.30572
 Alpha  occ. eigenvalues --   -0.29031  -0.27250  -0.25995  -0.23686  -0.22175
 Alpha  occ. eigenvalues --   -0.21980  -0.21210  -0.20735  -0.20097  -0.17827
 Alpha  occ. eigenvalues --   -0.17618  -0.16574  -0.15132  -0.14985  -0.13230
 Alpha  occ. eigenvalues --   -0.12696  -0.12624  -0.12105  -0.11623  -0.09657
 Alpha  occ. eigenvalues --   -0.09299  -0.07865  -0.07626  -0.06100  -0.01381
 Alpha  occ. eigenvalues --   -0.00306   0.00834   0.01398   0.02840   0.03710
 Alpha  occ. eigenvalues --    0.06285   0.12807
 Alpha virt. eigenvalues --    0.14725   0.15933   0.16661   0.17689   0.18014
 Alpha virt. eigenvalues --    0.18993   0.19761   0.20285   0.20607   0.21637
 Alpha virt. eigenvalues --    0.22182   0.22574   0.23405   0.23979   0.25217

  Beta  occ. eigenvalues --  -18.79060 -18.79018 -14.05717 -14.04860  -9.97991
  Beta  occ. eigenvalues --   -9.95319  -9.95000  -9.94759  -9.94596  -9.93279
  Beta  occ. eigenvalues --   -9.93231  -9.92410  -9.92384  -9.91306  -9.91253
  Beta  occ. eigenvalues --   -9.91212  -9.91172  -9.90758  -9.90706  -0.71126
  Beta  occ. eigenvalues --   -0.70674  -0.67267  -0.64694  -0.60091  -0.56888
  Beta  occ. eigenvalues --   -0.52384  -0.49912  -0.48959  -0.47731  -0.43462
  Beta  occ. eigenvalues --   -0.40781  -0.37875  -0.36804  -0.32560  -0.30572
  Beta  occ. eigenvalues --   -0.29031  -0.27250  -0.25995  -0.23686  -0.22175
  Beta  occ. eigenvalues --   -0.21980  -0.21210  -0.20735  -0.20097  -0.17827
  Beta  occ. eigenvalues --   -0.17618  -0.16574  -0.15132  -0.14985  -0.13230
  Beta  occ. eigenvalues --   -0.12696  -0.12624  -0.12105  -0.11623  -0.09657
  Beta  occ. eigenvalues --   -0.09299  -0.07865  -0.07626  -0.06100  -0.01381
  Beta  occ. eigenvalues --   -0.00306   0.00834   0.01398   0.02840   0.03710
  Beta  occ. eigenvalues --    0.06285   0.12807
  Beta virt. eigenvalues --    0.14725   0.15933   0.16661   0.17689   0.18014
  Beta virt. eigenvalues --    0.18993   0.19761   0.20285   0.20607   0.21637
  Beta virt. eigenvalues --    0.22182   0.22574   0.23405   0.23979   0.25217

 Mulliken charges and spin densities:
               1          2
     1  C    0.013268  -0.000000
     2  C   -0.574898   0.000000
     3  C   -0.565619   0.000000
     4  C    0.272298   0.000000
     5  C    0.239511   0.000000
     6  C   -0.044930   0.000000
     7  C   -0.644044  -0.000000
     8  C   -0.474213   0.000000
     9  C    0.619751  -0.000000
    10  C    0.348676  -0.000000
    11  C    0.014359   0.000000
    12  C   -0.418688   0.000000
    13  C   -0.154774   0.000000
    14  C   -0.182792   0.000000
    15  O   -0.491218  -0.000000
    16  O   -0.503142  -0.000000
    17  N   -0.437053  -0.000000
    18  N   -0.269613   0.000000
    19  C    0.113593  -0.000000
    20  H    0.133519   0.000000
    21  H    0.072742  -0.000000
    22  H    0.074585   0.000000
    23  H    0.127775  -0.000000
    24  H    0.017460   0.000000
    25  H    0.099644   0.000000
    26  H    0.293739   0.000000
    27  H    0.176635  -0.000000
    28  H    0.417060  -0.000000
    29  H    0.027899   0.000000
    30  H   -0.136321   0.000000
    31  H   -0.165208   0.000000
 Sum of Mulliken charges =  -2.00000  -0.00000

 Dipole moment (field-independent basis, Debye):
    X=              9.1399    Y=            -27.4733    Z=             19.2235  Tot=             34.7544
 Quadrupole moment (field-independent basis, Debye-Ang):
   XX=           -143.6869   YY=           -250.1751   ZZ=           -226.6642
   XY=             26.8964   XZ=            -36.0256   YZ=             56.4422

  Exact polarizability: 471.197 -71.786 526.551 672.458 -99.1421984.171
 Approx polarizability: 537.505 -66.753 721.430 666.505   8.1582011.507

                      1                      2                      3
                      A                      A                      A
 Frequencies --     49.3800                58.0247                86.6081
 Red. masses --      4.8387                 5.5719                 3.9382
 Frc consts  --      0.0070                 0.0111                 0.0174
 IR Inten    --      5.3093                 3.0557                10.1920

                      4                      5                      6
                      A                      A                      A
 Frequencies --    119.3940               134.8244               175.3755
 Red. masses --      3.2857                 4.3551                 6.3599
 Frc consts  --      0.0276                 0.0466                 0.1152
 IR Inten    --     24.8726                11.9371                 0.7856

                      7                      8                      9
                      A                      A                      A
 Frequencies --    187.0604               213.4071               248.2598
 Red. masses --      3.3385                 1.2766                 3.6826
 Frc consts  --      0.0688                 0.0343                 0.1337
 IR Inten    --     41.6337                 5.2050                 5.5776

                     10                     11                     12
                      A                      A                      A
 Frequencies --    265.4815               318.1080               340.2139
 Red. masses --      4.9066                 4.0256                 3.0544
 Frc consts  --      0.2038                 0.2400                 0.2083
 IR Inten    --      7.3462               298.3808                37.6271

                     13                     14                     15
                      A                      A                      A
 Frequencies --    346.9208               390.4144               392.9059
 Red. masses --      4.2187                 6.0949                 8.4827
 Frc consts  --      0.2991                 0.5474                 0.7715
 IR Inten    --     76.7994                53.6926                10.2325

                     16                     17                     18
                      A                      A                      A
 Frequencies --    406.9641               414.1617               436.3755
 Red. masses --      2.2098                 3.8109                 7.3235
 Frc consts  --      0.2156                 0.3851                 0.8217
 IR Inten    --    111.6132                23.1628                73.1848

                     19                     20                     21
                      A                      A                      A
 Frequencies --    441.9438               463.4645               490.8588
 Red. masses --      3.2610                 6.7023                 4.3217
 Frc consts  --      0.3753                 0.8482                 0.6135
 IR Inten    --      3.9453               365.4038                53.6318

                     22                     23                     24
                      A                      A                      A
 Frequencies --    502.8030               538.7972               593.5469
 Red. masses --      6.8753                 5.4468                 2.7976
 Frc consts  --      1.0241                 0.9316                 0.5807
 IR Inten    --    573.2242               259.9032                42.8847

                     25                     26                     27
                      A                      A                      A
 Frequencies --    611.9179               630.0074               655.9553
 Red. masses --      4.6279                 4.4251                 6.1150
 Frc consts  --      1.0210                 1.0348                 1.5502
 IR Inten    --     42.2547                 6.3335               120.5165

                     28                     29                     30
                      A                      A                      A
 Frequencies --    698.0368               710.0969               724.2909
 Red. masses --      1.6766                 4.3179                 3.3713
 Frc consts  --      0.4813                 1.2828                 1.0420
 IR Inten    --     10.7571                49.2605                 6.1545

                     31                     32                     33
                      A                      A                      A
 Frequencies --    740.8654               751.3631               766.5988
 Red. masses --      2.4661                 3.2452                 3.0366
 Frc consts  --      0.7975                 1.0794                 1.0514
 IR Inten    --     62.3694                21.9148                 7.3039

                     34                     35                     36
                      A                      A                      A
 Frequencies --    777.9577               787.7631               821.0578
 Red. masses --      1.7167                 1.5726                 3.9844
 Frc consts  --      0.6122                 0.5750                 1.5826
 IR Inten    --     14.5930                70.1217                 4.3683

                     37                     38                     39
                      A                      A                      A
 Frequencies --    847.4931               881.0390               916.2847
 Red. masses --      5.5328                 4.7191                 1.3241
 Frc consts  --      2.3414                 2.1582                 0.6550
 IR Inten    --    161.4787               159.8459                34.7040

                     40                     41                     42
                      A                      A                      A
 Frequencies --    938.5496               948.3662               954.1054
 Red. masses --      1.6236                 3.7093                 1.2267
 Frc consts  --      0.8426                 1.9656                 0.6579
 IR Inten    --    281.2641                10.0425                 1.7350

                     43                     44                     45
                      A                      A                      A
 Frequencies --    959.0964              1009.4529              1043.6478
 Red. masses --      1.3640                 2.2972                 2.5339
 Frc consts  --      0.7392                 1.3792                 1.6261
 IR Inten    --      3.8875               506.1424                98.6256

                     46                     47                     48
                      A                      A                      A
 Frequencies --   1090.3321              1094.5463              1126.3030
 Red. masses --      2.2817                 2.1294                 1.3453
 Frc consts  --      1.5982                 1.5030                 1.0055
 IR Inten    --    139.5379               172.8855               236.8014

                     49                     50                     51
                      A                      A                      A
 Frequencies --   1135.0193              1154.8457              1170.3450
 Red. masses --      1.3392                 2.6459                 1.7792
 Frc consts  --      1.0165                 2.0791                 1.4358
 IR Inten    --     15.0118               483.6241                92.1157

                     52                     53                     54
                      A                      A                      A
 Frequencies --   1175.8294              1198.2381              1219.7783
 Red. masses --      1.5211                 1.6621                 2.8483
 Frc consts  --      1.2391                 1.4061                 2.4969
 IR Inten    --     16.3900              1999.6682               625.1031

                     55                     56                     57
                      A                      A                      A
 Frequencies --   1238.8946              1251.8916              1256.3855
 Red. masses --      2.4559                 3.4365                 3.8353
 Frc consts  --      2.2209                 3.1732                 3.5669
 IR Inten    --   2543.9224               152.9578              1231.8506

                     58                     59                     60
                      A                      A                      A
 Frequencies --   1270.7069              1335.2090              1349.8658
 Red. masses --      3.7454                 2.6005                 6.9998
 Frc consts  --      3.5632                 2.7316                 7.5148
 IR Inten    --    808.3098               143.2313               219.9094

                     61                     62                     63
                      A                      A                      A
 Frequencies --   1375.4671              1419.1006              1426.2797
 Red. masses --      2.8241                 1.9866                 8.2290
 Frc consts  --      3.1479                 2.3572                 9.8629
 IR Inten    --    180.9593               470.9330              2156.6973

                     64                     65                     66
                      A                      A                      A
 Frequencies --   1438.1619              1461.3336              1464.3085
 Red. masses --      1.3998                 1.2790                 2.1908
 Frc consts  --      1.7058                 1.6092                 2.7677
 IR Inten    --    446.9610                69.2682               597.8821

                     67                     68                     69
                      A                      A                      A
 Frequencies --   1466.6031              1483.1508              1506.8323
 Red. masses --      2.3828                 4.9984                 1.0892
 Frc consts  --      3.0196                 6.4782                 1.4571
 IR Inten    --     96.0444                48.9094               391.3466

                     70                     71                     72
                      A                      A                      A
 Frequencies --   1537.6990              1552.7687              1578.0233
 Red. masses --      4.9602                 3.5049                 2.9309
 Frc consts  --      6.9102                 4.9790                 4.3001
 IR Inten    --    179.7352              3673.2618              2074.1767

                     73                     74                     75
                      A                      A                      A
 Frequencies --   1585.5952              1616.4573              1627.4047
 Red. masses --      4.8644                 1.8120                 1.4527
 Frc consts  --      7.2056                 2.7896                 2.2669
 IR Inten    --     44.0671               211.8555                85.8459

                     76                     77                     78
                      A                      A                      A
 Frequencies --   2840.5050              2921.8191              3032.1089
 Red. masses --      1.0667                 1.0750                 1.0895
 Frc consts  --      5.0709                 5.4073                 5.9017
 IR Inten    --     77.0484              1402.2490                29.8356

                     79                     80                     81
                      A                      A                      A
 Frequencies --   3060.9898              3090.3357              3098.6824
 Red. masses --      1.0859                 1.0827                 1.0860
 Frc consts  --      5.9944                 6.0919                 6.1436
 IR Inten    --   1070.2346                43.5050                44.3044

                     82                     83                     84
                      A                      A                      A
 Frequencies --   3114.2147              3137.5142              3150.1641
 Red. masses --      1.0908                 1.0717                 1.0891
 Frc consts  --      6.2331                 6.2160                 6.3677
 IR Inten    --    321.2962               381.2213                95.2982

                     85                     86                     87
                      A                      A                      A
 Frequencies --   3163.3439              3165.7520              3544.7779
 Red. masses --      1.0902                 1.0911                 1.0779
 Frc consts  --      6.4276                 6.4426                 7.9799
 IR Inten    --     36.1419               182.9336                23.7122

 - Thermochemistry -
 -------------------
 Temperature   298.150 Kelvin.  Pressure   1.00000 Atm.
 Atom     1 has atomic number  6 and mass  12.00000

 Molecular mass:   252.08988 amu.
 Principal axes and moments of inertia in atomic units:
                           1         2         3
     Eigenvalues --  3103.396505362.032578437.10913
           X            0.16153  -0.23175   0.95927
           Y            0.48290   0.86628   0.12797
           Z            0.86065  -0.44256  -0.25184
 This molecule is an asymmetric top.
 Rotational symmetry number  1.
 Warning -- assumption of classical behavior for rotation
           may cause significant error
 Rotational temperatures (Kelvin)      0.02791     0.01615     0.01027
 Rotational constants (GHZ):           0.58154     0.33658     0.21391
 Zero-point vibrational energy     614383.0 (Joules/Mol)
                                  146.84107 (Kcal/Mol)
 Warning -- explicit consideration of  25 degrees of freedom as
           vibrations may cause significant error
 Vibrational temperatures:     71.05    83.48   124.61   171.78   193.98
          (Kelvin)            252.33   269.14   307.05   357.19   381.97
                              457.69   489.49   499.14   561.72   565.30
                              585.53   595.89   627.85   635.86   666.82
                              706.24   723.42   775.21   853.98   880.41
                              906.44   943.77  1004.32  1021.67  1042.09
                             1065.94  1081.04  1102.96  1119.31  1133.42
                             1181.32  1219.35  1267.62  1318.33  1350.36
                             1364.49  1372.74  1379.93  1452.38  1501.58
                             1568.74  1574.81  1620.50  1633.04  1661.57
                             1683.87  1691.76  1724.00  1754.99  1782.49
                             1801.19  1807.66  1828.26  1921.07  1942.16
                             1978.99  2041.77  2052.10  2069.19  2102.53
                             2106.81  2110.11  2133.92  2168.00  2212.41
                             2234.09  2270.42  2281.32  2325.72  2341.47
                             4086.85  4203.85  4362.53  4404.08  4446.30
                             4458.31  4480.66  4514.18  4532.38  4551.35
                             4554.81  5100.14

 Zero-point correction=                           0.234006 (Hartree/Particle)
 Thermal correction to Energy=                    0.249307
 Thermal correction to Enthalpy=                  0.250251
 Thermal correction to Gibbs Free Energy=         0.192016
 Sum of electronic and zero-point Energies=           -838.766926
 Sum of electronic and thermal Energies=              -838.751625
 Sum of electronic and thermal Enthalpies=            -838.750681
 Sum of electronic and thermal Free Energies=         -838.808916

                     E (Thermal)             CV                S
                      KCal/Mol        Cal/Mol-Kelvin    Cal/Mol-Kelvin
 Total                  156.442             62.054            122.566
 Electronic               0.000              0.000              0.000
 Translational            0.889              2.981             42.474
 Rotational               0.889              2.981             33.306
 Vibrational            154.665             56.093             46.786
 Vibration     1          0.595              1.978              4.842
 Vibration     2          0.596              1.974              4.523
 Vibration     3          0.601              1.959              3.735
 Vibration     4          0.609              1.933              3.110
 Vibration     5          0.613              1.919              2.876
 Vibration     6          0.627              1.873              2.377
 Vibration     7          0.632              1.858              2.257
 Vibration     8          0.644              1.821              2.014
 Vibration     9          0.662              1.766              1.743
 Vibration    10          0.671              1.736              1.625
 Vibration    11          0.705              1.639              1.320
 Vibration    12          0.720              1.595              1.211
 Vibration    13          0.725              1.582              1.180
 Vibration    14          0.758              1.491              0.999
 Vibration    15          0.760              1.485              0.989
 Vibration    16          0.772              1.455              0.937
 Vibration    17          0.778              1.439              0.912
 Vibration    18          0.797              1.391              0.838
 Vibration    19          0.802              1.379              0.821
 Vibration    20          0.821              1.331              0.756
 Vibration    21          0.847              1.270              0.681
 Vibration    22          0.858              1.244              0.651
 Vibration    23          0.894              1.164              0.568
 Vibration    24          0.951              1.046              0.461
 Vibration    25          0.971              1.007              0.430

                           ! Non-Optimized Parameters !
 Normal termination of Gaussian 16 at Wed Dec 27 22:17:33 2023.
