 Q-Chem 5.4, Q-Chem, Inc., Pleasanton, CA (2021)
 Q-Chem 5.4.0 for Intel X86 EM64T Linux

User input:
--------------------------------------------------------------
$molecule
-2 1
C                  4.9781580000     -2.0291060000      0.5191700000
C                  5.7402030000     -1.3225570000     -0.4121790000
C                  5.1079290000     -0.6126770000     -1.4839930000
C                  3.5848740000     -2.0405390000      0.4433760000
C                  2.9211960000     -1.3250180000     -0.6285330000
C                  3.7413060000     -0.6264860000     -1.5631730000
C                  2.8380290000     -2.7871770000      1.4619160000
C                  1.3816420000     -2.7525740000      1.2877760000
C                  0.7524370000     -2.0259780000      0.2025530000
C                  1.4892590000     -1.2877430000     -0.7928080000
C                  0.5885900000     -3.4474660000      2.2016780000
C                 -0.6716020000     -2.0530050000      0.1279260000
C                 -1.4478360000     -2.7317220000      1.0284260000
O                  3.3978210000     -3.4066790000      2.4001090000
O                  0.9177970000     -0.6514910000     -1.7475900000
H                  5.4462560000     -2.5755160000      1.3292870000
S                  7.4651080000     -1.3913410000     -0.3407540000
H                 -2.5288740000     -2.7294990000      0.9635540000
H                  3.2206220000     -0.0928510000     -2.3507770000
H                  1.0869930000     -3.9838300000      3.0003510000
H                 -1.1182480000     -1.4956760000     -0.6882190000
C                 -0.8028200000     -3.4370590000      2.0956820000
S                 -1.7551970000     -4.3700770000      3.1944780000
O                 -1.0602380000     -4.6764580000      4.4516890000
O                 -3.1419820000     -3.8811620000      3.2749910000
O                 -1.8719400000     -5.8627450000      2.3759240000
C                 -2.6349980000     -6.8609590000      3.0522950000
H                 -2.1922900000     -7.1029920000      4.0242920000
H                 -2.6098500000     -7.7445130000      2.4101420000
H                 -3.6725490000     -6.5376670000      3.1904780000
H                  5.7137060000     -0.0648000000     -2.1951510000
O                  7.9784250000     -1.7585550000      0.9855140000
O                  8.0916170000     -0.2510740000     -1.0307010000
O                  7.8027200000     -2.7351080000     -1.3362090000
C                  9.1890150000     -3.0373630000     -1.4884550000
H                  9.6480040000     -3.2751510000     -0.5229840000
H                  9.7250210000     -2.2041000000     -1.9558450000
H                  9.2354850000     -3.9132960000     -2.1397680000
$end
$rem
MAX_SCF_CYCLES=200
BASIS  =  6-311++G(d,p)
GUI  =  2
JOB_TYPE  =  SP
METHOD  =  B3LYP
SOLVENT_METHOD = COSMO
$end
$solvent
dielectric 37.219
opticaldielectric 1.43
$end

--------------------------------------------------------------

             Standard Nuclear Orientation (Angstroms)
    I     Atom           X                Y                Z
 ----------------------------------------------------------------
    1      C       2.4549186488    -0.4797643242     0.3821836387
    2      C       3.6595095859     0.2127747683     0.2530120054
    3      C       3.6668841539     1.6160575666    -0.0354811140
    4      C       1.2321895518     0.1810834155     0.2583710030
    5      C       1.2131551640     1.6020957136    -0.0276175180
    6      C       2.4684610492     2.2655559075    -0.1621797811
    7      C      -0.0002893089    -0.5979851017     0.4218261715
    8      C      -1.2324069728     0.1814960263     0.2578736351
    9      C      -1.2128629540     1.6025219811    -0.0282258339
   10      C       0.0002821613     2.3663245579    -0.1816065627
   11      C      -2.4553648723    -0.4788933356     0.3814984659
   12      C      -2.4679877685     2.2662496865    -0.1635548945
   13      C      -3.6666450956     1.6171144302    -0.0373001123
   14      O      -0.0005325596    -1.8279334456     0.6759578866
   15      O       0.0006202419     3.6225729781    -0.4362315519
   16      H       2.4377391207    -1.5424437330     0.5928647183
   17      S       5.1569898351    -0.6453850446     0.3320352111
   18      H      -4.6100671155     2.1407980400    -0.1298573629
   19      H       2.4272264923     3.3295300925    -0.3682303738
   20      H      -2.4386300327    -1.5415198885     0.5924847353
   21      H      -2.4264120268     3.3301605298    -0.3698704289
   22      C      -3.6597548956     0.2139045918     0.2517257826
   23      S      -5.1573087575    -0.6438969080     0.3317645606
   24      O      -5.0556564922    -1.9275040441     1.0384726789
   25      O      -6.2832832298     0.2424764873     0.6712001927
   26      O      -5.4122036898    -1.0562025090    -1.3043130666
   27      C      -6.6145326732    -1.7804678804    -1.5612393557
   28      H      -6.6219834270    -2.7340224715    -1.0226981386
   29      H      -6.6271202507    -1.9694370477    -2.6372471507
   30      H      -7.4959542540    -1.1929256590    -1.2819286482
   31      H       4.6104618533     2.1396385907    -0.1271583642
   32      O       5.0550282960    -1.9299968754     1.0368072032
   33      O       6.2829517027     0.2403603316     0.6732304961
   34      O       5.4118938960    -1.0547311623    -1.3044494193
   35      C       6.6159454486    -1.7755328313    -1.5634003200
   36      H       6.6265115252    -2.7295739407    -1.0257738636
   37      H       7.4960192021    -1.1858153052    -1.2844980089
   38      H       6.6277590137    -1.9634230841    -2.6395900792
 ----------------------------------------------------------------

   11   -2015.4057779093      7.14e-06  Convergence criterion met
 Total energy in the final basis set =    -2015.4057779093
    5   -2015.6486983267      9.89e-06  Convergence criterion met
 Total energy in the final basis set =    -2015.6486983267

                    Orbital Energies (a.u.)
 --------------------------------------------------------------

 Alpha MOs
 -- Occupied --
-89.0812 -89.0812 -19.1617 -19.1617 -19.1331 -19.1331 -19.1315 -19.1315
-19.0643 -19.0359 -10.2218 -10.2175 -10.2175 -10.2065 -10.2065 -10.1941
-10.1908 -10.1908 -10.1807 -10.1807 -10.1692 -10.1692 -10.1673 -10.1673
-10.1641 -10.1641  -8.1423  -8.1423  -6.1057  -6.1057  -6.1046  -6.1046
 -6.1027  -6.1027  -1.1420  -1.1420  -1.0315  -1.0314  -1.0205  -1.0205
 -0.9928  -0.9581  -0.8663  -0.8625  -0.8012  -0.7777  -0.7611  -0.7536
 -0.7281  -0.7121  -0.6772  -0.6568  -0.6543  -0.6093  -0.6042  -0.5861
 -0.5612  -0.5517  -0.5494  -0.5224  -0.5209  -0.5038  -0.4933  -0.4872
 -0.4825  -0.4662  -0.4581  -0.4519  -0.4507  -0.4492  -0.4460  -0.4317
 -0.4284  -0.4186  -0.4144  -0.4102  -0.4068  -0.4009  -0.3996  -0.3834
 -0.3750  -0.3686  -0.3579  -0.3524  -0.3475  -0.3462  -0.3444  -0.3436
 -0.3392  -0.3307  -0.3300  -0.3296  -0.3232  -0.3202  -0.2947  -0.2947
 -0.2652  -0.2587  -0.2531  -0.2511  -0.2372  -0.2173  -0.1345

          Ground-State Mulliken Net Atomic Charges

     Atom                 Charge (a.u.)
  ----------------------------------------
      1 C                     0.061595
      2 C                    -1.014089
      3 C                    -0.373676
      4 C                     0.183661
      5 C                     0.738748
      6 C                    -0.271207
      7 C                    -0.903563
      8 C                     0.181417
      9 C                     0.736705
     10 C                    -0.041862
     11 C                     0.061776
     12 C                    -0.270396
     13 C                    -0.374916
     14 O                    -0.519768
     15 O                    -0.664734
     16 H                     0.230204
     17 S                     0.417018
     18 H                     0.245959
     19 H                     0.168459
     20 H                     0.229754
     21 H                     0.168617
     22 C                    -1.014591
     23 S                     0.419853
     24 O                    -0.278083
     25 O                    -0.281069
     26 O                    -0.133996
     27 C                    -0.163977
     28 H                     0.174167
     29 H                     0.189472
     30 H                     0.172757
     31 H                     0.245925
     32 O                    -0.277706
     33 O                    -0.281277
     34 O                    -0.133841
     35 C                    -0.164015
     36 H                     0.174281
     37 H                     0.172956
     38 H                     0.189401
  ----------------------------------------
  Sum of atomic charges =    -2.000043

                    Cartesian Multipole Moments
 -----------------------------------------------------------------
    Charge (ESU x 10^10)
                -9.6066
    Dipole Moment (Debye)
         X       0.0126      Y      -5.3605      Z      -5.9400
       Tot       8.0012
    Quadrupole Moments (Debye-Ang)
        XX    -275.1812     XY       0.0523     YY    -227.9050
        XZ      -0.0386     YZ      18.2523     ZZ    -179.1515

 Total job time:  194.06s(wall), 1101.96s(cpu)
        *  Thank you very much for using Q-Chem.  Have a nice day.  *
