 Gaussian 16, Revision A.03,
 Gaussian 16:  ES64L-G16RevA.03 25-Dec-2016

 --------------------------------------
 #P UB3LYP/6-311++G(d,p) nosym opt freq
 --------------------------------------

 -------
 Radical
 -------
 Symbolic Z-matrix:
 Charge = -1 Multiplicity = 2

 SCF Done:  E(UB3LYP) =  -1432.05661753     A.U. after   23 cycles
 SCF Done:  E(UB3LYP) =  -1432.05661684     A.U. after   14 cycles
 SCF Done:  E(UB3LYP) =  -1432.05661747     A.U. after   13 cycles
 SCF Done:  E(UB3LYP) =  -1432.05661749     A.U. after   13 cycles
 SCF Done:  E(UB3LYP) =  -1432.05661754     A.U. after   13 cycles
 Optimization completed.
    -- Stationary point found.
 Normal termination of Gaussian 16 at Wed Jan 10 05:56:03 2024.

 ----------------------------------------------------------------------
 #P Geom=AllCheck Guess=TCheck SCRF=Check GenChk UB3LYP/6-311++G(d,p) F
 req
 ----------------------------------------------------------------------

 Structure from the checkpoint file:  "068-rad.chk"
 -------
 Radical
 -------
 Charge = -1 Multiplicity = 2

                          Input orientation:
 ---------------------------------------------------------------------
 Center     Atomic      Atomic             Coordinates (Angstroms)
 Number     Number       Type             X           Y           Z
 ---------------------------------------------------------------------
      1          6           0        0.855427    1.171495   -1.498562
      2          6           0       -0.339357    0.391753   -1.763317
      3          6           0       -0.613522   -0.762153   -1.102120
      4          6           0        0.265701   -1.312995   -0.090622
      5          6           0        1.468502   -0.547519    0.222834
      6          6           0        1.701230    0.656217   -0.425213
      7          8           0        1.140558    2.191127   -2.167499
      8          8           0        0.002172   -2.403185    0.485151
      9         16           0        3.093160    1.699218    0.032494
     10          6           0        4.227983    1.638511   -1.377094
     11          6           0        5.147835    0.594335   -1.448596
     12          6           0        4.169672    2.633697   -2.348452
     13          6           0        5.067996    2.584375   -3.412903
     14          6           0        6.036190    0.553933   -2.521568
     15          6           0        5.998926    1.548782   -3.499399
     16          8           0        3.786966    1.029325    1.151063
     17          8           0        2.672882    3.093226    0.219682
     18          1           0       -0.995170    0.778003   -2.537423
     19          1           0       -1.505664   -1.342288   -1.318339
     20          1           0        5.156661   -0.168533   -0.679353
     21          1           0        3.418560    3.407406   -2.266919
     22          1           0        5.034568    3.351592   -4.178930
     23          1           0        6.756291   -0.254036   -2.591985
     24          1           0        6.692629    1.513257   -4.333208
     25          6           0        2.436588   -1.264780    1.167594
     26          8           0        3.336053   -1.913364    0.675951
     27          6           0        2.197685   -1.287436    2.701725
     28          6           0        1.145137   -0.257912    3.140859
     29          6           0        1.730458   -2.714803    3.077429
     30          6           0        3.537323   -1.011134    3.416404
     31          1           0        0.173451   -0.458014    2.683607
     32          1           0        1.450605    0.757976    2.879942
     33          1           0        1.019555   -0.303077    4.228251
     34          1           0        0.797916   -2.968394    2.574413
     35          1           0        1.591639   -2.771619    4.163162
     36          1           0        2.487336   -3.447807    2.786678
     37          1           0        3.880962    0.005849    3.231163
     38          1           0        4.305456   -1.703298    3.065092
     39          1           0        3.406854   -1.155721    4.494798
 ---------------------------------------------------------------------

 SCF Done:  E(UB3LYP) =  -1432.05661754     A.U. after    2 cycles

 Alpha  occ. eigenvalues --  -88.93686 -19.00364 -19.00001 -18.99922 -18.97199
 Alpha  occ. eigenvalues --  -18.97093 -10.15774 -10.12518 -10.12044 -10.11042
 Alpha  occ. eigenvalues --  -10.10094 -10.09715 -10.09648 -10.09633 -10.09405
 Alpha  occ. eigenvalues --  -10.09350 -10.08816 -10.08322 -10.06637 -10.06508
 Alpha  occ. eigenvalues --  -10.05257 -10.04862 -10.04834  -8.00054  -5.96328
 Alpha  occ. eigenvalues --   -5.96229  -5.96160  -0.99443  -0.93946  -0.89972
 Alpha  occ. eigenvalues --   -0.89560  -0.88778  -0.78119  -0.73199  -0.70901
 Alpha  occ. eigenvalues --   -0.68509  -0.66959  -0.66263  -0.60944  -0.58049
 Alpha  occ. eigenvalues --   -0.57655  -0.56569  -0.53430  -0.52880  -0.51319
 Alpha  occ. eigenvalues --   -0.48123  -0.47011  -0.43785  -0.41057  -0.39489
 Alpha  occ. eigenvalues --   -0.38410  -0.37795  -0.37401  -0.37232  -0.36200
 Alpha  occ. eigenvalues --   -0.35141  -0.34542  -0.34426  -0.33896  -0.32711
 Alpha  occ. eigenvalues --   -0.31508  -0.30924  -0.30401  -0.29750  -0.29281
 Alpha  occ. eigenvalues --   -0.28698  -0.28312  -0.27783  -0.27433  -0.26950
 Alpha  occ. eigenvalues --   -0.26745  -0.26479  -0.25784  -0.25499  -0.22607
 Alpha  occ. eigenvalues --   -0.22241  -0.21740  -0.20993  -0.19433  -0.19097
 Alpha  occ. eigenvalues --   -0.18335  -0.17779  -0.17412  -0.16181  -0.14871
 Alpha  occ. eigenvalues --   -0.13684  -0.12471  -0.06066
 Alpha virt. eigenvalues --    0.04973   0.06422   0.06872   0.07755   0.08118
 Alpha virt. eigenvalues --    0.08509   0.08737   0.09219   0.09892   0.10432
 Alpha virt. eigenvalues --    0.10785   0.11517   0.12007   0.12280   0.12757

  Beta  occ. eigenvalues --  -88.93688 -19.00339 -19.00003 -18.99912 -18.96441
  Beta  occ. eigenvalues --  -18.96403 -10.15789 -10.12460 -10.11956 -10.11042
  Beta  occ. eigenvalues --  -10.10089 -10.09716 -10.09650 -10.09629 -10.09400
  Beta  occ. eigenvalues --  -10.09238 -10.08550 -10.08319 -10.06583 -10.06412
  Beta  occ. eigenvalues --  -10.05256 -10.04861 -10.04833  -8.00055  -5.96329
  Beta  occ. eigenvalues --   -5.96230  -5.96164  -0.99423  -0.93878  -0.89074
  Beta  occ. eigenvalues --   -0.88567  -0.88189  -0.78112  -0.72580  -0.70866
  Beta  occ. eigenvalues --   -0.68457  -0.66953  -0.66015  -0.60346  -0.58020
  Beta  occ. eigenvalues --   -0.57650  -0.56125  -0.53184  -0.52874  -0.51199
  Beta  occ. eigenvalues --   -0.47929  -0.46819  -0.43684  -0.40883  -0.39330
  Beta  occ. eigenvalues --   -0.38252  -0.37730  -0.37277  -0.37133  -0.36180
  Beta  occ. eigenvalues --   -0.34966  -0.34458  -0.34396  -0.33844  -0.32665
  Beta  occ. eigenvalues --   -0.31464  -0.30180  -0.29660  -0.29384  -0.29079
  Beta  occ. eigenvalues --   -0.28468  -0.28081  -0.27355  -0.27200  -0.26704
  Beta  occ. eigenvalues --   -0.26447  -0.25787  -0.25618  -0.24013  -0.22524
  Beta  occ. eigenvalues --   -0.22165  -0.21719  -0.20954  -0.19356  -0.18874
  Beta  occ. eigenvalues --   -0.17995  -0.17568  -0.15571  -0.14633  -0.14288
  Beta  occ. eigenvalues --   -0.12982  -0.11985
  Beta virt. eigenvalues --    0.01149   0.05297   0.06422   0.06909   0.08077
  Beta virt. eigenvalues --    0.08373   0.08561   0.09129   0.09530   0.09930
  Beta virt. eigenvalues --    0.10441   0.10795   0.11538   0.12050   0.12506

 Mulliken charges and spin densities:
               1          2
     1  C   -0.429796   0.012942
     2  C   -0.004451   0.065266
     3  C   -0.085128   0.049294
     4  C   -0.711992   0.062311
     5  C    0.721144   0.185151
     6  C    0.159499   0.130132
     7  O   -0.295054   0.241797
     8  O   -0.307222   0.294383
     9  S    0.030708  -0.041351
    10  C    0.776415   0.003947
    11  C   -0.399395   0.003564
    12  C    0.096034   0.020667
    13  C   -0.480298  -0.002428
    14  C   -0.558299  -0.001534
    15  C   -0.315241   0.004233
    16  O   -0.108240  -0.003590
    17  O   -0.044206   0.008865
    18  H    0.173207  -0.006883
    19  H    0.166949  -0.004854
    20  H    0.231347   0.001230
    21  H    0.289008  -0.000387
    22  H    0.164133   0.000199
    23  H    0.172701   0.000035
    24  H    0.136271  -0.000291
    25  C   -0.242433  -0.029726
    26  O   -0.193739   0.002334
    27  C    0.325577  -0.001411
    28  C   -0.546096  -0.001779
    29  C   -0.551996   0.008016
    30  C   -0.579817  -0.000024
    31  H    0.151927   0.000440
    32  H    0.196909   0.000022
    33  H    0.135050   0.000105
    34  H    0.202248  -0.002294
    35  H    0.114857   0.000145
    36  H    0.155397   0.000573
    37  H    0.168207   0.000136
    38  H    0.155627   0.000119
    39  H    0.130190   0.000643
 Sum of Mulliken charges =  -1.00000   1.00000

 Dipole moment (field-independent basis, Debye):
    X=             -8.8257    Y=             -1.1535    Z=             -0.7523  Tot=              8.9325
 Quadrupole moment (field-independent basis, Debye-Ang):
   XX=           -174.1889   YY=           -183.3738   ZZ=           -156.7066
   XY=             -8.7069   XZ=             -8.9279   YZ=              6.1812

  Exact polarizability: 259.585  22.510 247.944 -19.319 -58.391 256.849
 Approx polarizability: 373.902   9.999 445.147 -20.316 -94.151 378.480

                      1                      2                      3
                      A                      A                      A
 Frequencies --     21.5268                30.0406                37.0910
 Red. masses --      4.6796                 3.7419                 5.0496
 Frc consts  --      0.0013                 0.0020                 0.0041
 IR Inten    --      2.2729                 0.9829                 0.3662

                      4                      5                      6
                      A                      A                      A
 Frequencies --     40.9190                71.2671                96.4256
 Red. masses --      5.0730                 5.7562                 4.8917
 Frc consts  --      0.0050                 0.0172                 0.0268
 IR Inten    --      1.0339                 1.1179                 2.9060

                      7                      8                      9
                      A                      A                      A
 Frequencies --    116.8271               140.5195               148.6695
 Red. masses --      5.4588                 8.2095                 6.6959
 Frc consts  --      0.0439                 0.0955                 0.0872
 IR Inten    --      3.9066                 3.2536                 3.5965

                     10                     11                     12
                      A                      A                      A
 Frequencies --    176.6090               180.4723               200.1520
 Red. masses --      6.5902                 8.2026                 5.7575
 Frc consts  --      0.1211                 0.1574                 0.1359
 IR Inten    --      1.1219                 0.8709                 5.3704

                     13                     14                     15
                      A                      A                      A
 Frequencies --    215.8631               223.9945               244.1349
 Red. masses --      1.1193                 5.2114                 2.1612
 Frc consts  --      0.0307                 0.1541                 0.0759
 IR Inten    --      0.1162                 0.3576                 1.7743

                     16                     17                     18
                      A                      A                      A
 Frequencies --    249.3002               266.9510               279.4518
 Red. masses --      2.1721                 2.1824                 1.4348
 Frc consts  --      0.0795                 0.0916                 0.0660
 IR Inten    --      0.0680                 2.2593                 0.5720

                     19                     20                     21
                      A                      A                      A
 Frequencies --    283.4743               304.0950               306.9672
 Red. masses --      5.0107                 4.6030                 3.3489
 Frc consts  --      0.2372                 0.2508                 0.1859
 IR Inten    --      0.1121                 5.1541                 8.9338

                     22                     23                     24
                      A                      A                      A
 Frequencies --    316.0315               355.5993               365.9959
 Red. masses --      5.7485                 3.5606                 3.0921
 Frc consts  --      0.3383                 0.2653                 0.2440
 IR Inten    --      0.3684                 1.1791                 0.5135

                     25                     26                     27
                      A                      A                      A
 Frequencies --    375.0519               403.3628               411.2408
 Red. masses --      2.7154                 6.0005                 2.8913
 Frc consts  --      0.2250                 0.5752                 0.2881
 IR Inten    --      2.2942                 4.5192                 0.0647

                     28                     29                     30
                      A                      A                      A
 Frequencies --    433.1127               446.9314               461.9589
 Red. masses --      4.3107                 5.9219                 5.5412
 Frc consts  --      0.4764                 0.6969                 0.6967
 IR Inten    --      2.6889                 9.8756                 5.4773

                     31                     32                     33
                      A                      A                      A
 Frequencies --    492.7623               511.8306               553.5674
 Red. masses --      7.4706                 5.9676                 5.0508
 Frc consts  --      1.0688                 0.9211                 0.9119
 IR Inten    --      2.4356                30.0938                37.2928

                     34                     35                     36
                      A                      A                      A
 Frequencies --    574.0784               592.1878               601.1666
 Red. masses --      6.7960                 5.9869                 4.0395
 Frc consts  --      1.3196                 1.2370                 0.8601
 IR Inten    --     30.5177               103.8275                49.0612

                     37                     38                     39
                      A                      A                      A
 Frequencies --    627.4546               650.3317               698.2183
 Red. masses --      6.4266                 3.5957                 2.7641
 Frc consts  --      1.4907                 0.8960                 0.7939
 IR Inten    --      0.0292                 5.3170                16.3385

                     40                     41                     42
                      A                      A                      A
 Frequencies --    700.6848               723.1772               726.8229
 Red. masses --      3.1484                 6.7288                 6.1543
 Frc consts  --      0.9107                 2.0734                 1.9155
 IR Inten    --     32.1688                78.6209                 3.1280

                     43                     44                     45
                      A                      A                      A
 Frequencies --    761.5191               775.1896               810.1238
 Red. masses --      1.7909                 7.9309                 3.5149
 Frc consts  --      0.6119                 2.8079                 1.3592
 IR Inten    --     12.0923                18.4326                 7.5039

                     46                     47                     48
                      A                      A                      A
 Frequencies --    839.3186               849.4575               878.7150
 Red. masses --      2.0112                 1.2479                 4.9876
 Frc consts  --      0.8348                 0.5305                 2.2690
 IR Inten    --     35.4504                 0.7031                68.2501

                     49                     50                     51
                      A                      A                      A
 Frequencies --    892.0100               933.7782               935.0663
 Red. masses --      8.6454                 1.8470                 1.3863
 Frc consts  --      4.0530                 0.9489                 0.7142
 IR Inten    --     20.6242                 1.8462                 0.4968

                     52                     53                     54
                      A                      A                      A
 Frequencies --    948.0829               971.6645               973.4461
 Red. masses --      1.6168                 1.2091                 1.2891
 Frc consts  --      0.8562                 0.6726                 0.7197
 IR Inten    --      1.4908                 0.3951                 0.4634

                     55                     56                     57
                      A                      A                      A
 Frequencies --    986.4484               993.2227              1010.5101
 Red. masses --      1.3782                 1.3034                 3.4412
 Frc consts  --      0.7901                 0.7576                 2.0703
 IR Inten    --      0.3438                 0.0528                55.9764

                     58                     59                     60
                      A                      A                      A
 Frequencies --   1014.1543              1039.0100              1042.3215
 Red. masses --      5.5402                 2.0547                 2.1917
 Frc consts  --      3.3572                 1.3069                 1.4029
 IR Inten    --     10.8730                25.6313                 6.6948

                     61                     62                     63
                      A                      A                      A
 Frequencies --   1056.9574              1067.6210              1096.7369
 Red. masses --      1.7343                 3.2104                 1.6382
 Frc consts  --      1.1415                 2.1560                 1.1610
 IR Inten    --     16.0476               114.8606                 9.8045

                     64                     65                     66
                      A                      A                      A
 Frequencies --   1098.0307              1112.3742              1131.9979
 Red. masses --      2.1120                 4.3770                 2.4123
 Frc consts  --      1.5003                 3.1910                 1.8213
 IR Inten    --      8.5122               120.2411                57.5443

                     67                     68                     69
                      A                      A                      A
 Frequencies --   1177.6058              1198.9721              1205.9222
 Red. masses --      1.1161                 1.1551                 2.6529
 Frc consts  --      0.9119                 0.9783                 2.2731
 IR Inten    --      0.1073                 6.0099                11.7991

                     70                     71                     72
                      A                      A                      A
 Frequencies --   1214.7756              1242.1395              1248.9105
 Red. masses --      2.5879                16.4388                 2.9403
 Frc consts  --      2.2501                14.9438                 2.7021
 IR Inten    --      7.9898               153.5860                12.1354

                     73                     74                     75
                      A                      A                      A
 Frequencies --   1263.1275              1311.6137              1330.7941
 Red. masses --      2.6536                 2.4999                 3.2163
 Frc consts  --      2.4945                 2.5339                 3.3561
 IR Inten    --      4.7498                 7.3428                 0.0359

                     76                     77                     78
                      A                      A                      A
 Frequencies --   1347.8239              1383.1691              1390.2283
 Red. masses --      1.6709                 1.2050                 1.2232
 Frc consts  --      1.7884                 1.3583                 1.3930
 IR Inten    --      3.0206                16.0146                12.4937

                     79                     80                     81
                      A                      A                      A
 Frequencies --   1406.1820              1418.3937              1447.7832
 Red. masses --      3.3957                 1.2445                 7.2768
 Frc consts  --      3.9561                 1.4752                 8.9867
 IR Inten    --     45.5272                26.5020               159.9825

                     82                     83                     84
                      A                      A                      A
 Frequencies --   1471.1002              1472.8457              1489.8940
 Red. masses --      1.0583                 2.1726                 1.0513
 Frc consts  --      1.3494                 2.7768                 1.3750
 IR Inten    --      1.8715                13.9266                 8.1886

                     85                     86                     87
                      A                      A                      A
 Frequencies --   1496.8870              1501.0716              1504.3220
 Red. masses --      1.1102                 1.0731                 1.0615
 Frc consts  --      1.4657                 1.4246                 1.4154
 IR Inten    --      3.9968                 4.4295                15.2308

                     88                     89                     90
                      A                      A                      A
 Frequencies --   1507.1761              1516.7819              1529.4879
 Red. masses --      2.0173                 5.1624                 1.0639
 Frc consts  --      2.7000                 6.9976                 1.4663
 IR Inten    --      8.5704                61.6122                30.9978

                     91                     92                     93
                      A                      A                      A
 Frequencies --   1550.9359              1621.5512              1623.3452
 Red. masses --      8.5346                 5.3430                 5.8366
 Frc consts  --     12.0954                 8.2775                 9.0622
 IR Inten    --    274.0668                 2.4885                 0.0684

                     94                     95                     96
                      A                      A                      A
 Frequencies --   1633.6794              1741.3432              3009.3217
 Red. masses --      7.1669                12.5869                 1.0425
 Frc consts  --     11.2697                22.4873                 5.5623
 IR Inten    --     15.9047               128.1293                32.0067

                     97                     98                     99
                      A                      A                      A
 Frequencies --   3014.5166              3022.1766              3077.8970
 Red. masses --      1.0422                 1.0417                 1.0947
 Frc consts  --      5.5798                 5.6056                 6.1100
 IR Inten    --     31.3520               141.7333                24.6126

                    100                    101                    102
                      A                      A                      A
 Frequencies --   3079.3572              3088.5378              3105.4912
 Red. masses --      1.0949                 1.0927                 1.1029
 Frc consts  --      6.1173                 6.1414                 6.2669
 IR Inten    --     28.2214                40.4106                12.9943

                    103                    104                    105
                      A                      A                      A
 Frequencies --   3130.4664              3132.2147              3147.8989
 Red. masses --      1.0992                 1.0996                 1.0856
 Frc consts  --      6.3467                 6.3561                 6.3382
 IR Inten    --      4.8178                 9.1679                10.4495

                    106                    107                    108
                      A                      A                      A
 Frequencies --   3150.5517              3166.6107              3169.0234
 Red. masses --      1.0852                 1.0899                 1.0959
 Frc consts  --      6.3465                 6.4388                 6.4843
 IR Inten    --      2.4014                26.2085                31.8581

                    109                    110                    111
                      A                      A                      A
 Frequencies --   3176.6072              3196.3860              3219.9150
 Red. masses --      1.0951                 1.0940                 1.0928
 Frc consts  --      6.5107                 6.5853                 6.6756
 IR Inten    --     35.8691                10.2132                 6.1131

 - Thermochemistry -
 -------------------
 Temperature   298.150 Kelvin.  Pressure   1.00000 Atm.
 Atom     1 has atomic number  6 and mass  12.00000

 Molecular mass:   332.07185 amu.
 Principal axes and moments of inertia in atomic units:
                           1         2         3
     Eigenvalues --  4585.016239050.73244**********
           X           -0.50049   0.84287  -0.19768
           Y           -0.55269  -0.13531   0.82233
           Z            0.66637   0.52082   0.53357
 This molecule is an asymmetric top.
 Rotational symmetry number  1.
 Warning -- assumption of classical behavior for rotation
           may cause significant error
 Rotational temperatures (Kelvin)      0.01889     0.00957     0.00807
 Rotational constants (GHZ):           0.39362     0.19940     0.16814
 Zero-point vibrational energy     771644.6 (Joules/Mol)
                                  184.42750 (Kcal/Mol)
 Warning -- explicit consideration of  36 degrees of freedom as
           vibrations may cause significant error
 Vibrational temperatures:     30.97    43.22    53.37    58.87   102.54
          (Kelvin)            138.73   168.09   202.18   213.90   254.10
                              259.66   287.97   310.58   322.28   351.26
                              358.69   384.08   402.07   407.86   437.52
                              441.66   454.70   511.63   526.59   539.62
                              580.35   591.68   623.15   643.03   664.66
                              708.98   736.41   796.46   825.97   852.03
                              864.94   902.77   935.68  1004.58  1008.13
                             1040.49  1045.74  1095.66  1115.32  1165.59
                             1207.59  1222.18  1264.27  1283.40  1343.50
                             1345.35  1364.08  1398.01  1400.57  1419.28
                             1429.03  1453.90  1459.14  1494.90  1499.67
                             1520.73  1536.07  1577.96  1579.82  1600.46
                             1628.69  1694.31  1725.05  1735.05  1747.79
                             1787.16  1796.90  1817.36  1887.12  1914.72
                             1939.22  1990.07  2000.23  2023.18  2040.75
                             2083.04  2116.59  2119.10  2143.63  2153.69
                             2159.71  2164.38  2168.49  2182.31  2200.59
                             2231.45  2333.05  2335.63  2350.50  2505.40
                             4329.74  4337.22  4348.24  4428.41  4430.51
                             4443.72  4468.11  4504.04  4506.56  4529.12
                             4532.94  4556.05  4559.52  4570.43  4598.89
                             4632.74

 Zero-point correction=                           0.293904 (Hartree/Particle)
 Thermal correction to Energy=                    0.315735
 Thermal correction to Enthalpy=                  0.316679
 Thermal correction to Gibbs Free Energy=         0.241844
 Sum of electronic and zero-point Energies=          -1431.762714
 Sum of electronic and thermal Energies=             -1431.740882
 Sum of electronic and thermal Enthalpies=           -1431.739938
 Sum of electronic and thermal Free Energies=        -1431.814774

                     E (Thermal)             CV                S
                      KCal/Mol        Cal/Mol-Kelvin    Cal/Mol-Kelvin
 Total                  198.127             83.446            157.505
 Electronic               0.000              0.000              1.377
 Translational            0.889              2.981             43.296
 Rotational               0.889              2.981             34.454
 Vibrational            196.349             77.484             78.378
 Vibration     1          0.593              1.985              6.488
 Vibration     2          0.594              1.984              5.827
 Vibration     3          0.594              1.982              5.409
 Vibration     4          0.594              1.981              5.214
 Vibration     5          0.598              1.968              4.118
 Vibration     6          0.603              1.952              3.525
 Vibration     7          0.608              1.935              3.152
 Vibration     8          0.615              1.913              2.797
 Vibration     9          0.618              1.904              2.689
 Vibration    10          0.628              1.871              2.364
 Vibration    11          0.629              1.866              2.324
 Vibration    12          0.638              1.840              2.132
 Vibration    13          0.645              1.817              1.994
 Vibration    14          0.649              1.805              1.927
 Vibration    15          0.659              1.772              1.773
 Vibration    16          0.662              1.764              1.736
 Vibration    17          0.672              1.734              1.616
 Vibration    18          0.680              1.712              1.537
 Vibration    19          0.682              1.704              1.513
 Vibration    20          0.695              1.666              1.394
 Vibration    21          0.697              1.660              1.379
 Vibration    22          0.703              1.643              1.331
 Vibration    23          0.731              1.564              1.141
 Vibration    24          0.739              1.542              1.097
 Vibration    25          0.746              1.523              1.059
 Vibration    26          0.769              1.463              0.950
 Vibration    27          0.775              1.446              0.922
 Vibration    28          0.794              1.398              0.849
 Vibration    29          0.806              1.368              0.805
 Vibration    30          0.820              1.334              0.760
 Vibration    31          0.848              1.266              0.676
 Vibration    32          0.867              1.224              0.629
 Vibration    33          0.909              1.132              0.537
 Vibration    34          0.930              1.087              0.496
 Vibration    35          0.950              1.048              0.463
 Vibration    36          0.959              1.029              0.448

 Optimization completed.
    -- Stationary point found.
 Normal termination of Gaussian 16 at Wed Jan 10 09:21:21 2024.
