 Q-Chem 5.4, Q-Chem, Inc., Pleasanton, CA (2021)
 Q-Chem 5.4.0 for Intel X86 EM64T Linux

User input:
--------------------------------------------------------------
$molecule
-1 2
C                  0.8554270000      1.1714950000     -1.4985620000
C                 -0.3393570000      0.3917530000     -1.7633170000
C                 -0.6135220000     -0.7621530000     -1.1021200000
C                  0.2657010000     -1.3129950000     -0.0906220000
C                  1.4685020000     -0.5475190000      0.2228340000
C                  1.7012300000      0.6562170000     -0.4252130000
O                  1.1405580000      2.1911270000     -2.1674990000
O                  0.0021720000     -2.4031850000      0.4851510000
S                  3.0931600000      1.6992180000      0.0324940000
C                  4.2279830000      1.6385110000     -1.3770940000
C                  5.1478350000      0.5943350000     -1.4485960000
C                  4.1696720000      2.6336970000     -2.3484520000
C                  5.0679960000      2.5843750000     -3.4129030000
C                  6.0361900000      0.5539330000     -2.5215680000
C                  5.9989260000      1.5487820000     -3.4993990000
O                  3.7869660000      1.0293250000      1.1510630000
O                  2.6728820000      3.0932260000      0.2196820000
H                 -0.9951700000      0.7780030000     -2.5374230000
H                 -1.5056640000     -1.3422880000     -1.3183390000
H                  5.1566610000     -0.1685330000     -0.6793530000
H                  3.4185600000      3.4074060000     -2.2669190000
H                  5.0345680000      3.3515920000     -4.1789300000
H                  6.7562910000     -0.2540360000     -2.5919850000
H                  6.6926290000      1.5132570000     -4.3332080000
C                  2.4365880000     -1.2647800000      1.1675940000
O                  3.3360530000     -1.9133640000      0.6759510000
C                  2.1976850000     -1.2874360000      2.7017250000
C                  1.1451370000     -0.2579120000      3.1408590000
C                  1.7304580000     -2.7148030000      3.0774290000
C                  3.5373230000     -1.0111340000      3.4164040000
H                  0.1734510000     -0.4580140000      2.6836070000
H                  1.4506050000      0.7579760000      2.8799420000
H                  1.0195550000     -0.3030770000      4.2282510000
H                  0.7979160000     -2.9683940000      2.5744130000
H                  1.5916390000     -2.7716190000      4.1631620000
H                  2.4873360000     -3.4478070000      2.7866780000
H                  3.8809620000      0.0058490000      3.2311630000
H                  4.3054560000     -1.7032980000      3.0650920000
H                  3.4068540000     -1.1557210000      4.4947980000
$end
$rem
MAX_SCF_CYCLES=200
BASIS  =  6-311++G(d,p)
GUI  =  2
JOB_TYPE  =  SP
METHOD  =  B3LYP
SOLVENT_METHOD = COSMO
$end
$solvent
dielectric 37.219
opticaldielectric 1.43
$end

--------------------------------------------------------------

             Standard Nuclear Orientation (Angstroms)
    I     Atom           X                Y                Z
 ----------------------------------------------------------------
    1      C       0.5745320665    -2.2928069127    -0.3131770682
    2      C      -0.2485424589    -3.3480048461     0.2478106771
    3      C      -1.4609755572    -3.1019251503     0.8075407390
    4      C      -2.0249461984    -1.7704159556     0.9003231572
    5      C      -1.2390617291    -0.6819294850     0.3271554502
    6      C      -0.0287355474    -0.9629801167    -0.2886600012
    7      O       1.7247093445    -2.5165414704    -0.7552866580
    8      O      -3.1391304450    -1.5665261045     1.4539464142
    9      S       0.9010142169     0.3249414835    -1.1322471255
   10      C       2.3851054369     0.5872597925    -0.1286987877
   11      C       2.3146133456     1.4673394199     0.9492782396
   12      C       3.5620451487    -0.0794978586    -0.4566909538
   13      C       4.7009849160     0.1543189961     0.3118274162
   14      C       3.4593810462     1.6872144881     1.7129782504
   15      C       4.6508059323     1.0351794548     1.3926289736
   16      O       0.1089315031     1.5674467207    -1.0317199405
   17      O       1.3251641129    -0.1144028278    -2.4671646101
   18      H       0.1721969137    -4.3480140842     0.2093430702
   19      H      -2.0617398445    -3.8994809551     1.2344032831
   20      H       1.3781028702     1.9603151529     1.1810180355
   21      H       3.5609162758    -0.7764788892    -1.2835274865
   22      H       5.6256891403    -0.3585662534     0.0701508983
   23      H       3.4192193363     2.3676784251     2.5565858468
   24      H       5.5398007007     1.2094316405     1.9901637456
   25      C      -1.8044574776     0.7125676396     0.6098756653
   26      O      -1.3824579761     1.3127681786     1.5758399837
   27      C      -2.9833471915     1.2881669618    -0.2208170130
   28      C      -3.2370582454     0.4828134970    -1.5044260371
   29      C      -4.2426455379     1.2594479499     0.6792796545
   30      C      -2.6711659543     2.7580920703    -0.5723876174
   31      H      -3.5051808438    -0.5524696396    -1.2817312149
   32      H      -2.3583891035     0.4834400233    -2.1535461762
   33      H      -4.0671763940     0.9317917650    -2.0608022155
   34      H      -4.4894322137     0.2411310230     0.9777675878
   35      H      -5.0843901148     1.6977599847     0.1309516985
   36      H      -4.0733671641     1.8503174233     1.5831122787
   37      H      -1.8251525834     2.8294542925    -1.2549015162
   38      H      -2.4327789746     3.3227658403     0.3314124773
   39      H      -3.5514697534     3.2108648718    -1.0424122882
 ----------------------------------------------------------------

    9   -1432.0565127290      7.11e-06  Convergence criterion met
 Total energy in the final basis set =    -1432.0565127290
    4   -1432.1406071116      8.55e-06  Convergence criterion met
 Total energy in the final basis set =    -1432.1406071116

                    Orbital Energies (a.u.)
 --------------------------------------------------------------

 Alpha MOs
 -- Occupied --
-89.0571 -19.1249 -19.1243 -19.1212 -19.0970 -19.0966 -10.2757 -10.2486
-10.2434 -10.2145 -10.2127 -10.2084 -10.1934 -10.1912 -10.1885 -10.1879
-10.1862 -10.1856 -10.1810 -10.1799 -10.1527 -10.1503 -10.1489  -8.1210
 -6.0839  -6.0827  -6.0818  -1.1176  -1.0604  -1.0258  -1.0211  -1.0121
 -0.8771  -0.8518  -0.8139  -0.7902  -0.7724  -0.7630  -0.7265  -0.6821
 -0.6795  -0.6781  -0.6462  -0.6222  -0.6200  -0.5919  -0.5784  -0.5420
 -0.5274  -0.5057  -0.5019  -0.4863  -0.4820  -0.4781  -0.4681  -0.4597
 -0.4565  -0.4537  -0.4375  -0.4351  -0.4307  -0.4274  -0.4221  -0.4126
 -0.3984  -0.3952  -0.3929  -0.3850  -0.3803  -0.3787  -0.3719  -0.3674
 -0.3593  -0.3589  -0.3473  -0.3360  -0.3269  -0.3227  -0.3167  -0.3083
 -0.3036  -0.2866  -0.2753  -0.2704  -0.2667  -0.2621  -0.2472  -0.1842

 Beta MOs
 -- Occupied --
-89.0571 -19.1248 -19.1241 -19.1212 -19.0904 -19.0894 -10.2759 -10.2477
-10.2422 -10.2134 -10.2127 -10.2058 -10.1933 -10.1912 -10.1885 -10.1879
-10.1862 -10.1856 -10.1805 -10.1790 -10.1527 -10.1503 -10.1489  -8.1210
 -6.0839  -6.0827  -6.0819  -1.1175  -1.0597  -1.0162  -1.0110  -1.0079
 -0.8770  -0.8454  -0.8136  -0.7888  -0.7707  -0.7630  -0.7197  -0.6819
 -0.6786  -0.6745  -0.6440  -0.6222  -0.6184  -0.5898  -0.5765  -0.5410
 -0.5255  -0.5040  -0.4994  -0.4855  -0.4811  -0.4778  -0.4661  -0.4585
 -0.4560  -0.4534  -0.4369  -0.4341  -0.4242  -0.4218  -0.4140  -0.4077
 -0.3948  -0.3915  -0.3871  -0.3794  -0.3790  -0.3715  -0.3685  -0.3641
 -0.3591  -0.3581  -0.3459  -0.3356  -0.3267  -0.3225  -0.3161  -0.3063
 -0.2859  -0.2747  -0.2686  -0.2665  -0.2630  -0.2559  -0.2431

          Ground-State Mulliken Net Atomic Charges

     Atom                 Charge (a.u.)    Spin (a.u.)
  --------------------------------------------------------
      1 C                    -0.280928       0.038837
      2 C                    -0.116931       0.056384
      3 C                    -0.211844       0.042382
      4 C                    -0.549963       0.087802
      5 C                     0.681562       0.183054
      6 C                     0.099150       0.126037
      7 O                    -0.397994       0.227326
      8 O                    -0.405037       0.276187
      9 S                     0.230113      -0.037592
     10 C                     0.727386       0.003070
     11 C                    -0.407813       0.004335
     12 C                     0.096063       0.017511
     13 C                    -0.513250      -0.002047
     14 C                    -0.589969      -0.001735
     15 C                    -0.377664       0.003246
     16 O                    -0.174752      -0.003254
     17 O                    -0.169153       0.008277
     18 H                     0.233253      -0.006171
     19 H                     0.227461      -0.004311
     20 H                     0.235162       0.001151
     21 H                     0.279530      -0.000312
     22 H                     0.233919       0.000194
     23 H                     0.240135       0.000051
     24 H                     0.212094      -0.000225
     25 C                    -0.109936      -0.027215
     26 O                    -0.268566       0.001831
     27 C                     0.236793       0.001415
     28 C                    -0.546023      -0.002244
     29 C                    -0.573223       0.006844
     30 C                    -0.580311      -0.001001
     31 H                     0.154599       0.000478
     32 H                     0.188866       0.000014
     33 H                     0.178904       0.000196
     34 H                     0.187700      -0.001883
     35 H                     0.158899       0.000203
     36 H                     0.173376       0.000477
     37 H                     0.161096       0.000058
     38 H                     0.167336       0.000085
     39 H                     0.169959       0.000545
  --------------------------------------------------------
  Sum of atomic charges =    -1.000000

                    Cartesian Multipole Moments
 -----------------------------------------------------------------
    Charge (ESU x 10^10)
                -4.8032
    Dipole Moment (Debye)
         X       3.5774      Y       3.0648      Z       1.9247
       Tot       5.0887
    Quadrupole Moments (Debye-Ang)
        XX    -153.4431     XY       3.0028     YY    -159.2262
        XZ      25.7995     YZ       1.5224     ZZ    -166.6295

 Total job time:  182.87s(wall), 1364.61s(cpu)
        *  Thank you very much for using Q-Chem.  Have a nice day.  *
