 Gaussian 16, Revision A.03,
 Gaussian 16:  ES64L-G16RevA.03 25-Dec-2016

 ----------------------------------------------------------------------
 #P UB3LYP/6-311++G(d,p) nosym opt freq SCRF=(PCM,Solvent=n,n-DiMethylF
 ormamide)
 ----------------------------------------------------------------------

 --------
 Oxidized
 --------
 Symbolic Z-matrix:
 Charge =  0 Multiplicity = 1

 SCF Done:  E(UB3LYP) =  -1615.37821980     A.U. after   16 cycles
 SCF Done:  E(UB3LYP) =  -1615.37809950     A.U. after   12 cycles
 SCF Done:  E(UB3LYP) =  -1615.37817582     A.U. after   12 cycles
 SCF Done:  E(UB3LYP) =  -1615.37827734     A.U. after   11 cycles
 SCF Done:  E(UB3LYP) =  -1615.37827955     A.U. after   12 cycles
 SCF Done:  E(UB3LYP) =  -1615.37828594     A.U. after   12 cycles
 SCF Done:  E(UB3LYP) =  -1615.37829806     A.U. after   11 cycles
 SCF Done:  E(UB3LYP) =  -1615.37830110     A.U. after   11 cycles
 SCF Done:  E(UB3LYP) =  -1615.37830138     A.U. after   11 cycles
 SCF Done:  E(UB3LYP) =  -1615.37830287     A.U. after   10 cycles
 SCF Done:  E(UB3LYP) =  -1615.37830346     A.U. after   11 cycles
 SCF Done:  E(UB3LYP) =  -1615.37830495     A.U. after   11 cycles
 SCF Done:  E(UB3LYP) =  -1615.37830539     A.U. after   10 cycles
 SCF Done:  E(UB3LYP) =  -1615.37830557     A.U. after   10 cycles
 SCF Done:  E(UB3LYP) =  -1615.37830573     A.U. after   10 cycles
 SCF Done:  E(UB3LYP) =  -1615.37830590     A.U. after   11 cycles
 SCF Done:  E(UB3LYP) =  -1615.37830598     A.U. after   10 cycles
 SCF Done:  E(UB3LYP) =  -1615.37830600     A.U. after   10 cycles
 Optimization completed.
    -- Stationary point found.
 Normal termination of Gaussian 16 at Sat Feb 10 11:49:41 2024.

 ----------------------------------------------------------------------
 #P Geom=AllCheck Guess=TCheck SCRF=Check GenChk UB3LYP/6-311++G(d,p) F
 req
 ----------------------------------------------------------------------

 Structure from the checkpoint file:  "018.chk"
 --------
 Oxidized
 --------
 Charge =  0 Multiplicity = 1

                          Input orientation:
 ---------------------------------------------------------------------
 Center     Atomic      Atomic             Coordinates (Angstroms)
 Number     Number       Type             X           Y           Z
 ---------------------------------------------------------------------
      1          6           0       -1.797622    0.095839    1.423032
      2          6           0       -2.881295    0.920374    0.778685
      3          6           0       -2.920998    0.735561   -0.554980
      4          6           0       -1.830596    0.005540   -1.297082
      5          6           0       -0.456194   -0.057108   -0.679406
      6          6           0       -0.512712   -0.122379    0.664842
      7          8           0       -2.064789   -0.530854   -2.360639
      8          8           0       -1.958955   -0.404808    2.517089
      9         17           0        0.800857   -0.566062    1.726179
     10         17           0       -4.238692    1.189307   -1.606971
     11          6           0        0.756544   -0.189530   -1.622184
     12          6           0        0.530204    0.653170   -2.905373
     13          6           0        2.061021    0.347633   -0.986472
     14          6           0        0.945542   -1.678002   -2.000215
     15          6           0       -3.855305    1.695392    1.688389
     16          6           0       -3.129214    2.192932    2.965423
     17          6           0       -4.408171    2.963780    0.993971
     18          6           0       -5.026538    0.766227    2.085613
     19          1           0       -0.293615    0.284234   -3.511125
     20          1           0        1.439249    0.614821   -3.509460
     21          1           0        0.340862    1.702148   -2.657891
     22          1           0        1.918773    1.340500   -0.551681
     23          1           0        2.812131    0.433734   -1.775141
     24          1           0        2.463878   -0.310552   -0.221320
     25          1           0        1.134230   -2.287513   -1.112834
     26          1           0        1.806884   -1.775149   -2.667499
     27          1           0        0.066577   -2.070565   -2.513142
     28          1           0       -2.810897    1.379067    3.611836
     29          1           0       -3.817505    2.826161    3.529297
     30          1           0       -2.254729    2.799328    2.710474
     31          1           0       -3.604230    3.564297    0.559853
     32          1           0       -4.909946    3.574023    1.748475
     33          1           0       -5.133342    2.743181    0.215601
     34          1           0       -4.667304   -0.108648    2.630129
     35          1           0       -5.577966    0.427332    1.205240
     36          1           0       -5.720238    1.312691    2.731155
 ---------------------------------------------------------------------

 SCF Done:  E(UB3LYP) =  -1615.37830600     A.U. after    2 cycles

 Alpha  occ. eigenvalues -- -101.57483-101.57472 -19.15108 -19.15085 -10.30475
 Alpha  occ. eigenvalues --  -10.30467 -10.27061 -10.27043 -10.23273 -10.23269
 Alpha  occ. eigenvalues --  -10.21419 -10.21410 -10.16605 -10.16553 -10.16270
 Alpha  occ. eigenvalues --  -10.16256 -10.16192 -10.16165  -9.48970  -9.48959
 Alpha  occ. eigenvalues --   -7.25439  -7.25430  -7.24477  -7.24466  -7.24371
 Alpha  occ. eigenvalues --   -7.24359  -1.08972  -1.08699  -0.91658  -0.90219
 Alpha  occ. eigenvalues --   -0.84915  -0.83866  -0.81391  -0.76293  -0.70005
 Alpha  occ. eigenvalues --   -0.69572  -0.69523  -0.69163  -0.69045  -0.64983
 Alpha  occ. eigenvalues --   -0.60111  -0.57749  -0.56241  -0.54715  -0.49979
 Alpha  occ. eigenvalues --   -0.49466  -0.48640  -0.47710  -0.45877  -0.45522
 Alpha  occ. eigenvalues --   -0.45380  -0.44984  -0.44501  -0.43569  -0.43551
 Alpha  occ. eigenvalues --   -0.42392  -0.40747  -0.39990  -0.38960  -0.38510
 Alpha  occ. eigenvalues --   -0.37859  -0.37602  -0.37395  -0.37214  -0.36407
 Alpha  occ. eigenvalues --   -0.36196  -0.35006  -0.34938  -0.34716  -0.34346
 Alpha  occ. eigenvalues --   -0.32701  -0.32209  -0.29798  -0.29679  -0.28447
 Alpha  occ. eigenvalues --   -0.27199
 Alpha virt. eigenvalues --   -0.12886  -0.05695  -0.02613  -0.01049  -0.00277
 Alpha virt. eigenvalues --    0.00239   0.01317   0.01483   0.02054   0.02131
 Alpha virt. eigenvalues --    0.02248   0.02690   0.03591   0.03832   0.04314

  Beta  occ. eigenvalues -- -101.57483-101.57472 -19.15108 -19.15085 -10.30475
  Beta  occ. eigenvalues --  -10.30467 -10.27061 -10.27043 -10.23273 -10.23269
  Beta  occ. eigenvalues --  -10.21419 -10.21410 -10.16605 -10.16553 -10.16270
  Beta  occ. eigenvalues --  -10.16256 -10.16192 -10.16165  -9.48970  -9.48959
  Beta  occ. eigenvalues --   -7.25439  -7.25430  -7.24477  -7.24466  -7.24371
  Beta  occ. eigenvalues --   -7.24359  -1.08972  -1.08699  -0.91658  -0.90219
  Beta  occ. eigenvalues --   -0.84915  -0.83866  -0.81391  -0.76293  -0.70005
  Beta  occ. eigenvalues --   -0.69572  -0.69523  -0.69163  -0.69045  -0.64983
  Beta  occ. eigenvalues --   -0.60111  -0.57749  -0.56241  -0.54715  -0.49979
  Beta  occ. eigenvalues --   -0.49466  -0.48640  -0.47710  -0.45877  -0.45522
  Beta  occ. eigenvalues --   -0.45380  -0.44984  -0.44501  -0.43569  -0.43551
  Beta  occ. eigenvalues --   -0.42392  -0.40747  -0.39990  -0.38960  -0.38510
  Beta  occ. eigenvalues --   -0.37859  -0.37602  -0.37395  -0.37214  -0.36407
  Beta  occ. eigenvalues --   -0.36196  -0.35006  -0.34938  -0.34716  -0.34346
  Beta  occ. eigenvalues --   -0.32701  -0.32209  -0.29798  -0.29679  -0.28447
  Beta  occ. eigenvalues --   -0.27199
  Beta virt. eigenvalues --   -0.12886  -0.05695  -0.02613  -0.01049  -0.00277
  Beta virt. eigenvalues --    0.00239   0.01317   0.01483   0.02054   0.02131
  Beta virt. eigenvalues --    0.02248   0.02690   0.03591   0.03832   0.04314

 Mulliken charges and spin densities:
               1          2
     1  C   -1.280696   0.000000
     2  C    1.086325  -0.000000
     3  C   -0.200280  -0.000000
     4  C   -1.242479   0.000000
     5  C    1.092035  -0.000000
     6  C   -0.249271  -0.000000
     7  O   -0.166510   0.000000
     8  O   -0.168509   0.000000
     9  Cl   0.571826  -0.000000
    10  Cl   0.525789  -0.000000
    11  C    0.578045   0.000000
    12  C   -0.692885  -0.000000
    13  C   -0.645072  -0.000000
    14  C   -0.695662  -0.000000
    15  C    0.581703   0.000000
    16  C   -0.679065  -0.000000
    17  C   -0.665047  -0.000000
    18  C   -0.689900   0.000000
    19  H    0.167641   0.000000
    20  H    0.163533   0.000000
    21  H    0.153446   0.000000
    22  H    0.166800   0.000000
    23  H    0.151831  -0.000000
    24  H    0.141144  -0.000000
    25  H    0.147504   0.000000
    26  H    0.178003   0.000000
    27  H    0.203243   0.000000
    28  H    0.168983   0.000000
    29  H    0.160933  -0.000000
    30  H    0.153723   0.000000
    31  H    0.169443  -0.000000
    32  H    0.153470   0.000000
    33  H    0.136571   0.000000
    34  H    0.202321   0.000000
    35  H    0.143423  -0.000000
    36  H    0.177641   0.000000
 Sum of Mulliken charges =   0.00000  -0.00000

 Dipole moment (field-independent basis, Debye):
    X=              1.0656    Y=              2.8329    Z=             -0.1052  Tot=              3.0285
 Quadrupole moment (field-independent basis, Debye-Ang):
   XX=           -119.2319   YY=           -120.9171   ZZ=           -134.9662
   XY=             -8.1908   XZ=             -9.2542   YZ=              3.3911

  Exact polarizability: 271.567 -25.962 211.501  10.697   1.173 333.143
 Approx polarizability: 281.672 -19.472 234.504  26.280  -2.820 408.245

                      1                      2                      3
                      A                      A                      A
 Frequencies --      3.7069                23.8481                39.6276
 Red. masses --      3.0028                 3.0213                 5.8667
 Frc consts  --      0.0000                 0.0010                 0.0054
 IR Inten    --      0.1135                 0.2619                 0.2257

                      4                      5                      6
                      A                      A                      A
 Frequencies --     60.9604                77.2956               154.7681
 Red. masses --      6.6748                 6.5996                 3.9788
 Frc consts  --      0.0146                 0.0232                 0.0562
 IR Inten    --      2.5851                 2.6771                 4.0104

                      7                      8                      9
                      A                      A                      A
 Frequencies --    162.0288               168.1507               170.8934
 Red. masses --      2.3528                 2.9043                 2.6137
 Frc consts  --      0.0364                 0.0484                 0.0450
 IR Inten    --      1.4048                 1.7108                 1.3424

                     10                     11                     12
                      A                      A                      A
 Frequencies --    212.1458               215.6960               230.7741
 Red. masses --      2.7446                 3.3933                 1.8169
 Frc consts  --      0.0728                 0.0930                 0.0570
 IR Inten    --      1.4080                 0.4335                 0.3552

                     13                     14                     15
                      A                      A                      A
 Frequencies --    242.4413               255.7084               264.2710
 Red. masses --      1.5579                 1.5121                 1.0821
 Frc consts  --      0.0540                 0.0583                 0.0445
 IR Inten    --      0.2926                 0.4768                 0.0749

                     16                     17                     18
                      A                      A                      A
 Frequencies --    265.9444               279.2979               286.5676
 Red. masses --      1.1066                 1.8437                 4.0313
 Frc consts  --      0.0461                 0.0847                 0.1951
 IR Inten    --      0.1593                 3.2270                 0.7537

                     19                     20                     21
                      A                      A                      A
 Frequencies --    304.5807               312.6856               319.9761
 Red. masses --      2.4792                 2.1822                 5.1032
 Frc consts  --      0.1355                 0.1257                 0.3078
 IR Inten    --      0.7809                 1.0057                 0.0289

                     22                     23                     24
                      A                      A                      A
 Frequencies --    335.7881               351.2051               352.1852
 Red. masses --      3.0944                 4.6181                 3.9319
 Frc consts  --      0.2056                 0.3356                 0.2873
 IR Inten    --      0.3968                10.1344                 4.3837

                     25                     26                     27
                      A                      A                      A
 Frequencies --    399.3642               401.3753               410.5138
 Red. masses --      9.5607                 2.6823                 2.8119
 Frc consts  --      0.8984                 0.2546                 0.2792
 IR Inten    --      5.5034                 0.1240                 3.6653

                     28                     29                     30
                      A                      A                      A
 Frequencies --    413.8282               443.5720               504.7581
 Red. masses --      2.2991                 2.4478                 5.7341
 Frc consts  --      0.2320                 0.2838                 0.8608
 IR Inten    --      1.1419                 0.4561                 0.2120

                     31                     32                     33
                      A                      A                      A
 Frequencies --    532.5312               548.5353               575.9071
 Red. masses --      3.6473                 3.1069                 5.5248
 Frc consts  --      0.6094                 0.5508                 1.0796
 IR Inten    --     12.5252                 0.0375                54.8546

                     34                     35                     36
                      A                      A                      A
 Frequencies --    631.2445               692.7252               750.7642
 Red. masses --      8.2278                 6.4278                 8.2887
 Frc consts  --      1.9316                 1.8173                 2.7526
 IR Inten    --      0.0776               166.5370                 4.0857

                     37                     38                     39
                      A                      A                      A
 Frequencies --    756.5655               768.0646               808.1989
 Red. masses --      8.1691                 5.7779                 6.5344
 Frc consts  --      2.7550                 2.0082                 2.5148
 IR Inten    --     10.3257                 8.6548                91.3154

                     40                     41                     42
                      A                      A                      A
 Frequencies --    828.6635               863.5542               909.2081
 Red. masses --      3.7545                 4.2202                 4.6718
 Frc consts  --      1.5190                 1.8542                 2.2754
 IR Inten    --     50.5478                 0.1224                 0.1553

                     43                     44                     45
                      A                      A                      A
 Frequencies --    931.3312               933.0998               934.9911
 Red. masses --      1.8349                 1.8609                 1.8829
 Frc consts  --      0.9377                 0.9546                 0.9698
 IR Inten    --      0.4707                 1.0866                 1.6612

                     46                     47                     48
                      A                      A                      A
 Frequencies --    938.0779               957.8728               966.2887
 Red. masses --      1.8902                 4.4761                 1.1952
 Frc consts  --      0.9800                 2.4197                 0.6575
 IR Inten    --     18.5354                 0.1818                 0.2883

                     49                     50                     51
                      A                      A                      A
 Frequencies --    967.0142              1043.1064              1046.1413
 Red. masses --      1.1956                 1.6450                 1.3978
 Frc consts  --      0.6587                 1.0546                 0.9013
 IR Inten    --      0.3317               125.2489                 5.7686

                     52                     53                     54
                      A                      A                      A
 Frequencies --   1047.0494              1053.7299              1096.5715
 Red. masses --      1.4328                 1.3902                 3.0599
 Frc consts  --      0.9255                 0.9094                 2.1679
 IR Inten    --     20.5237                 0.1805               313.8454

                     55                     56                     57
                      A                      A                      A
 Frequencies --   1188.2588              1198.7623              1216.3961
 Red. masses --      8.2625                 3.7342                 2.6816
 Frc consts  --      6.8736                 3.1617                 2.3377
 IR Inten    --    270.8919                 2.1733                19.4979

                     58                     59                     60
                      A                      A                      A
 Frequencies --   1217.1731              1225.2193              1226.1969
 Red. masses --      2.6821                 2.7308                 2.6579
 Frc consts  --      2.3411                 2.4153                 2.3546
 IR Inten    --     19.5964                57.5746                12.8335

                     61                     62                     63
                      A                      A                      A
 Frequencies --   1254.5856              1272.0174              1392.1244
 Red. masses --      2.8947                 4.1042                 1.1953
 Frc consts  --      2.6845                 3.9126                 1.3649
 IR Inten    --    110.5773                 4.9828                 8.4921

                     64                     65                     66
                      A                      A                      A
 Frequencies --   1392.4329              1397.5901              1397.9967
 Red. masses --      1.1962                 1.1986                 1.1989
 Frc consts  --      1.3665                 1.3794                 1.3805
 IR Inten    --     13.3013                 9.3744                18.8027

                     67                     68                     69
                      A                      A                      A
 Frequencies --   1427.1474              1427.2726              1475.8310
 Red. masses --      1.2074                 1.2087                 1.0472
 Frc consts  --      1.4489                 1.4507                 1.3439
 IR Inten    --      7.3772                 3.9009                 0.0591

                     70                     71                     72
                      A                      A                      A
 Frequencies --   1475.8697              1483.1114              1483.6504
 Red. masses --      1.0473                 1.0441                 1.0443
 Frc consts  --      1.3440                 1.3532                 1.3544
 IR Inten    --      0.0432                 2.2521                 2.6380

                     73                     74                     75
                      A                      A                      A
 Frequencies --   1490.3091              1491.1422              1494.1642
 Red. masses --      1.0472                 1.0474                 1.0477
 Frc consts  --      1.3703                 1.3721                 1.3782
 IR Inten    --      6.3970                 8.2349                15.2446

                     76                     77                     78
                      A                      A                      A
 Frequencies --   1494.8171              1501.5936              1501.9892
 Red. masses --      1.0473                 1.0550                 1.0535
 Frc consts  --      1.3788                 1.4015                 1.4003
 IR Inten    --     16.5890                 6.3418                20.1436

                     79                     80                     81
                      A                      A                      A
 Frequencies --   1519.3371              1519.8041              1592.4734
 Red. masses --      1.0572                 1.0566                11.0823
 Frc consts  --      1.4379                 1.4380                16.5587
 IR Inten    --     47.4570                23.8599               204.1715

                     82                     83                     84
                      A                      A                      A
 Frequencies --   1634.7255              1715.8074              1727.8442
 Red. masses --     11.3867                12.7113                12.8610
 Frc consts  --     17.9282                22.0484                22.6222
 IR Inten    --      6.9647               842.5274               118.4389

                     85                     86                     87
                      A                      A                      A
 Frequencies --   3027.4621              3027.6847              3032.3620
 Red. masses --      1.0357                 1.0353                 1.0412
 Frc consts  --      5.5928                 5.5916                 5.6407
 IR Inten    --     49.3977                50.8920                26.3800

                     88                     89                     90
                      A                      A                      A
 Frequencies --   3032.3900              3040.5635              3040.7695
 Red. masses --      1.0408                 1.0414                 1.0412
 Frc consts  --      5.6387                 5.6727                 5.6724
 IR Inten    --     11.6706                28.2057                72.1562

                     91                     92                     93
                      A                      A                      A
 Frequencies --   3089.9635              3090.2047              3090.3569
 Red. masses --      1.1016                 1.1013                 1.1021
 Frc consts  --      6.1972                 6.1965                 6.2011
 IR Inten    --      2.9018                 2.9280                30.0238

                     94                     95                     96
                      A                      A                      A
 Frequencies --   3092.2966              3097.9105              3098.0114
 Red. masses --      1.1018                 1.1001                 1.1002
 Frc consts  --      6.2073                 6.2206                 6.2211
 IR Inten    --     26.7219               190.0566                13.0380

                     97                     98                     99
                      A                      A                      A
 Frequencies --   3111.5193              3115.9112              3147.8611
 Red. masses --      1.1024                 1.1016                 1.0971
 Frc consts  --      6.2881                 6.3013                 6.4051
 IR Inten    --     24.5859                21.9379                16.2054

                    100                    101                    102
                      A                      A                      A
 Frequencies --   3149.0310              3149.3879              3152.6714
 Red. masses --      1.0969                 1.0964                 1.0958
 Frc consts  --      6.4088                 6.4074                 6.4171
 IR Inten    --     15.9038                26.9076                23.8511

 - Thermochemistry -
 -------------------
 Temperature   298.150 Kelvin.  Pressure   1.00000 Atm.
 Atom     1 has atomic number  6 and mass  12.00000

 Molecular mass:   288.06839 amu.
 Principal axes and moments of inertia in atomic units:
                           1         2         3
     Eigenvalues --  3619.788276503.257348918.56020
           X            0.86703   0.35149   0.35314
           Y           -0.34248  -0.09437   0.93477
           Z           -0.36189   0.93142  -0.03855
 This molecule is an asymmetric top.
 Rotational symmetry number  1.
 Warning -- assumption of classical behavior for rotation
           may cause significant error
 Rotational temperatures (Kelvin)      0.02393     0.01332     0.00971
 Rotational constants (GHZ):           0.49858     0.27751     0.20236
 Zero-point vibrational energy     757638.1 (Joules/Mol)
                                  181.07985 (Kcal/Mol)
 Warning -- explicit consideration of  33 degrees of freedom as
           vibrations may cause significant error
 Vibrational temperatures:      5.33    34.31    57.02    87.71   111.21
          (Kelvin)            222.68   233.12   241.93   245.88   305.23
                              310.34   332.03   348.82   367.91   380.23
                              382.63   401.85   412.31   438.22   449.88
                              460.37   483.12   505.31   506.72   574.60
                              577.49   590.64   595.41   638.20   726.23
                              766.19   789.22   828.60   908.22   996.68
                             1080.18  1088.53  1105.07  1162.82  1192.26
                             1242.46  1308.15  1339.98  1342.52  1345.24
                             1349.68  1378.17  1390.27  1391.32  1500.80
                             1505.16  1506.47  1516.08  1577.72  1709.64
                             1724.75  1750.12  1751.24  1762.82  1764.22
                             1805.07  1830.15  2002.96  2003.40  2010.82
                             2011.41  2053.35  2053.53  2123.39  2123.45
                             2133.87  2134.64  2144.22  2145.42  2149.77
                             2150.71  2160.46  2161.03  2185.99  2186.66
                             2291.21  2352.01  2468.66  2485.98  4355.84
                             4356.16  4362.89  4362.93  4374.69  4374.99
                             4445.77  4446.12  4446.33  4449.13  4457.20
                             4457.35  4476.78  4483.10  4529.07  4530.75
                             4531.27  4535.99

 Zero-point correction=                           0.288569 (Hartree/Particle)
 Thermal correction to Energy=                    0.308612
 Thermal correction to Enthalpy=                  0.309556
 Thermal correction to Gibbs Free Energy=         0.238042
 Sum of electronic and zero-point Energies=          -1615.089737
 Sum of electronic and thermal Energies=             -1615.069694
 Sum of electronic and thermal Enthalpies=           -1615.068750
 Sum of electronic and thermal Free Energies=        -1615.140264

                     E (Thermal)             CV                S
                      KCal/Mol        Cal/Mol-Kelvin    Cal/Mol-Kelvin
 Total                  193.657             74.944            150.514
 Electronic               0.000              0.000              0.000
 Translational            0.889              2.981             42.872
 Rotational               0.889              2.981             33.706
 Vibrational            191.879             68.982             73.936
 Vibration     1          0.593              1.987              9.983
 Vibration     2          0.593              1.985              6.285
 Vibration     3          0.594              1.981              5.278
 Vibration     4          0.597              1.973              4.426
 Vibration     5          0.599              1.964              3.958
 Vibration     6          0.620              1.897              2.613
 Vibration     7          0.622              1.889              2.526
 Vibration     8          0.625              1.882              2.456
 Vibration     9          0.626              1.878              2.426
 Vibration    10          0.643              1.822              2.025
 Vibration    11          0.645              1.817              1.995
 Vibration    12          0.652              1.794              1.873
 Vibration    13          0.659              1.775              1.785
 Vibration    14          0.666              1.753              1.691
 Vibration    15          0.671              1.738              1.633
 Vibration    16          0.672              1.736              1.622
 Vibration    17          0.680              1.712              1.538
 Vibration    18          0.684              1.699              1.494
 Vibration    19          0.695              1.665              1.392
 Vibration    20          0.701              1.649              1.348
 Vibration    21          0.706              1.635              1.310
 Vibration    22          0.717              1.604              1.232
 Vibration    23          0.728              1.573              1.161
 Vibration    24          0.729              1.571              1.156
 Vibration    25          0.765              1.471              0.965
 Vibration    26          0.767              1.467              0.958
 Vibration    27          0.775              1.447              0.925
 Vibration    28          0.777              1.440              0.913
 Vibration    29          0.803              1.375              0.815
 Vibration    30          0.860              1.239              0.646
 Vibration    31          0.888              1.178              0.582
 Vibration    32          0.904              1.143              0.547
 Vibration    33          0.932              1.083              0.493

                           ! Non-Optimized Parameters !
 Normal termination of Gaussian 16 at Sat Feb 10 12:56:28 2024.
