 Q-Chem 5.4, Q-Chem, Inc., Pleasanton, CA (2021)
 Q-Chem 5.4.0 for Intel X86 EM64T Linux

User input:
--------------------------------------------------------------
$molecule
0 1
C                  1.0834220000      1.4374030000     -3.0060750000
C                 -0.2879700000      1.6457930000     -3.5298770000
C                 -1.2365000000      0.7185870000     -3.3626270000
C                 -0.9538790000     -0.5521540000     -2.6526790000
C                  0.4232050000     -0.7786590000     -2.1018640000
O                  1.9438460000      2.2907080000     -3.1516330000
O                 -1.8259260000     -1.3958240000     -2.5242790000
H                 -0.4625040000      2.5863800000     -4.0406100000
C                  1.3735250000      0.1621420000     -2.2902140000
C                  2.7668160000      0.0599790000     -1.6821330000
C                  3.9071570000     -0.3006880000     -2.5632950000
C                  5.2534360000     -0.1434480000     -2.1443390000
C                  3.6325260000     -0.8236600000     -3.8375210000
C                  6.2592110000     -0.5258270000     -3.0371450000
C                  5.9730140000     -1.0553080000     -4.2930070000
C                  4.6503300000     -1.2084880000     -4.6993870000
O                  2.8722120000      0.2841590000     -0.4905730000
C                  5.6504330000      0.4263630000     -0.8063200000
H                  2.6022270000     -0.9386270000     -4.1518610000
H                  7.2942000000     -0.4023840000     -2.7368310000
H                  6.7838410000     -1.3427760000     -4.9532450000
H                  4.4153840000     -1.6167600000     -5.6751760000
C                  0.6313340000     -2.0727240000     -1.3740820000
H                 -2.2498780000      0.8379020000     -3.7296520000
H                 -0.0021010000     -2.1055350000     -0.4827850000
H                  1.6668240000     -2.2075270000     -1.0669480000
H                  0.3227260000     -2.9135500000     -2.0003780000
H                  5.1609800000      1.3833590000     -0.6150950000
H                  6.7322610000      0.5689150000     -0.7684730000
H                  5.3539800000     -0.2328520000      0.0123950000
$end
$rem
MAX_SCF_CYCLES=200
BASIS  =  6-311++G(d,p)
GUI  =  2
JOB_TYPE  =  SP
METHOD  =  B3LYP
SOLVENT_METHOD = COSMO
$end
$solvent
dielectric 37.219
opticaldielectric 1.43
$end

--------------------------------------------------------------

             Standard Nuclear Orientation (Angstroms)
    I     Atom           X                Y                Z
 ----------------------------------------------------------------
    1      C      -1.3320311162     0.9771122112     1.2105645228
    2      C      -2.7031376206     1.5358192844     1.1304127598
    3      C      -3.6104157885     1.0154394655     0.2976799936
    4      C      -3.2807269177    -0.1344588484    -0.5785178137
    5      C      -1.9035260014    -0.7250952459    -0.5041652451
    6      O      -0.5096881507     1.4482782027     1.9795903154
    7      O      -4.1148526641    -0.5861053387    -1.3459689757
    8      H      -2.9127848500     2.3735003242     1.7864255141
    9      C      -0.9947539887    -0.1799703955     0.3328907105
   10      C       0.3919961475    -0.7745437388     0.5447071196
   11      C       1.5615217916    -0.1009810702    -0.0761212389
   12      C       2.8923365515    -0.4201131360     0.2977804764
   13      C       1.3314463291     0.8656628542    -1.0687131002
   14      C       3.9286413058     0.2551829394    -0.3540993212
   15      C       3.6870239849     1.2023397275    -1.3460485661
   16      C       2.3793904570     1.5115741607    -1.7101507532
   17      O       0.4681229639    -1.7827433906     1.2221422771
   18      C       3.2414655409    -1.4266760890     1.3643291197
   19      H       0.3126352710     1.1062124800    -1.3474656455
   20      H       4.9519672169     0.0308749623    -0.0728184756
   21      H       4.5205648569     1.7001261042    -1.8291746670
   22      H       2.1789529860     2.2486835682    -2.4786195965
   23      C      -1.6474462937    -1.9008015409    -1.3984394959
   24      H      -4.6222998357     1.3962785242     0.2144293064
   25      H      -2.2926809022    -2.7359921113    -1.1105926366
   26      H      -0.6118170476    -2.2325213312    -1.3517840756
   27      H      -1.9070238677    -1.6549302467    -2.4312224979
   28      H       2.7054390092    -1.2295664303     2.2948106744
   29      H       4.3148355405    -1.4018347858     1.5627353779
   30      H       2.9628481412    -2.4392103130     1.0645127787
 ----------------------------------------------------------------

    9    -804.6824389334      6.31e-06  Convergence criterion met
 Total energy in the final basis set =     -804.6824389334
    5    -804.7015245468      5.06e-06  Convergence criterion met
 Total energy in the final basis set =     -804.7015245468

                    Orbital Energies (a.u.)
 --------------------------------------------------------------

 Alpha MOs
 -- Occupied --
-19.1494 -19.1489 -19.1366 -10.2954 -10.2927 -10.2890 -10.2298 -10.2205
-10.2142 -10.2133 -10.2060 -10.1999 -10.1941 -10.1907 -10.1844 -10.1829
-10.1793 -10.1653  -1.0824  -1.0795  -1.0709  -0.8803  -0.8730  -0.8175
 -0.7872  -0.7801  -0.7426  -0.7007  -0.6980  -0.6639  -0.6333  -0.6064
 -0.6020  -0.5657  -0.5386  -0.5278  -0.5053  -0.4925  -0.4816  -0.4767
 -0.4653  -0.4567  -0.4530  -0.4442  -0.4411  -0.4326  -0.4314  -0.4217
 -0.4139  -0.4114  -0.4026  -0.3927  -0.3895  -0.3704  -0.3687  -0.3563
 -0.3173  -0.3048  -0.3002  -0.2925  -0.2751  -0.2678  -0.2626

          Ground-State Mulliken Net Atomic Charges

     Atom                 Charge (a.u.)
  ----------------------------------------
      1 C                    -0.483367
      2 C                    -0.233677
      3 C                     0.075674
      4 C                    -0.301667
      5 C                     0.357734
      6 O                    -0.276444
      7 O                    -0.296863
      8 H                     0.266590
      9 C                     0.764965
     10 C                    -0.087108
     11 C                     0.142600
     12 C                     0.626138
     13 C                    -0.287594
     14 C                    -0.535177
     15 C                    -0.265741
     16 C                    -0.203099
     17 O                    -0.290250
     18 C                    -0.631999
     19 H                     0.194382
     20 H                     0.184408
     21 H                     0.218686
     22 H                     0.225064
     23 C                    -0.584496
     24 H                     0.268957
     25 H                     0.219732
     26 H                     0.169243
     27 H                     0.210532
     28 H                     0.193039
     29 H                     0.161247
     30 H                     0.198490
  ----------------------------------------
  Sum of atomic charges =     0.000000

                    Cartesian Multipole Moments
 -----------------------------------------------------------------
    Charge (ESU x 10^10)
                 0.0000
    Dipole Moment (Debye)
         X       1.2748      Y       2.4692      Z      -2.8779
       Tot       4.0005
    Quadrupole Moments (Debye-Ang)
        XX     -93.9950     XY      -6.5897     YY    -104.7053
        XZ     -11.5381     YZ      -2.7272     ZZ    -110.2091

 Total job time:  103.36s(wall), 472.26s(cpu)
        *  Thank you very much for using Q-Chem.  Have a nice day.  *
