 Q-Chem 5.4, Q-Chem, Inc., Pleasanton, CA (2021)
 Q-Chem 5.4.0 for Intel X86 EM64T Linux

User input:
--------------------------------------------------------------
$molecule
-1 2
C                  4.6082680000      5.0515060000     -1.3404630000
O                  3.9633950000      3.8634860000     -0.9375840000
C                  4.6247990000      2.6765690000     -1.0671090000
C                  5.9097840000      2.6096300000     -1.5858380000
C                  6.5672940000      1.3703300000     -1.7065460000
C                  5.9398490000      0.2132530000     -1.3100260000
C                  4.6351970000      0.2480170000     -0.7769930000
C                  4.0516300000     -1.0506840000     -0.3776060000
O                  4.7077040000     -2.0963850000     -0.5482520000
C                  2.7041790000     -1.0219240000      0.2001160000
C                  2.0584260000     -2.1959350000      0.6736720000
O                  2.7556260000     -3.3783750000      0.6603490000
C                  0.7577460000     -2.1650060000      1.1798190000
C                  0.1853330000     -3.4394180000      1.7782100000
C                 -1.3057730000     -3.3956130000      2.1714860000
O                 -2.1387210000     -3.7273930000      1.0600520000
C                 -1.6578570000     -2.0055860000      2.7472710000
C                 -1.3659480000     -0.8918320000      1.7453030000
O                 -2.3623010000     -1.0805730000      0.6701980000
C                 -2.6417850000      0.0313040000     -0.1254070000
C                 -3.3452420000     -0.4250250000     -1.4029850000
C                 -4.2558620000      0.6835230000     -1.9779940000
N                 -4.3953280000      0.5069430000     -3.4263890000
C                 -3.7384480000      2.0655170000     -1.5408550000
O                 -2.4528020000      2.2297990000     -2.1423390000
C                 -3.7661590000      2.1547070000      0.0045690000
C                 -2.8646510000      3.2432860000      0.5880720000
O                 -3.5153270000      0.8898420000      0.6298500000
C                  0.0494920000     -0.9412160000      1.2294160000
C                  0.6782140000      0.2386510000      0.8296300000
O                  0.0162440000      1.4099600000      0.9418320000
C                  2.0088720000      0.2224290000      0.3067810000
C                  2.5983150000      1.4899160000     -0.0986670000
O                  1.9176140000      2.5739260000      0.0374800000
C                  3.9412270000      1.4858400000     -0.6433090000
C                 -1.5880340000     -4.4397860000      3.2754700000
C                 -2.8289680000     -5.2910370000      3.1313730000
O                 -0.8513920000     -4.5427290000      4.2351130000
H                  3.8963320000      5.8533300000     -1.1425780000
H                  4.8536520000      5.0431960000     -2.4105120000
H                  5.5263640000      5.2353100000     -0.7672320000
H                  6.4198660000      3.5088150000     -1.9028700000
H                  7.5725750000      1.3407920000     -2.1152760000
H                  6.4161570000     -0.7551870000     -1.3896510000
H                  2.1790480000     -4.0761350000      0.9846120000
H                  0.7570630000     -3.6979540000      2.6783020000
H                  0.2792320000     -4.2801150000      1.0772330000
H                 -2.3411730000     -2.9022250000      0.5885200000
H                 -1.0562510000     -1.8408340000      3.6448880000
H                 -2.7144320000     -1.9729750000      3.0286890000
H                 -1.5659360000      0.0797510000      2.1972220000
H                 -1.7235880000      0.5756230000     -0.3477550000
H                 -2.5891590000     -0.7035000000     -2.1411230000
H                 -3.9428130000     -1.3141180000     -1.1883360000
H                 -5.2547070000      0.5760640000     -1.5412710000
H                 -3.4980680000      0.6845200000     -3.8702700000
H                 -5.0494500000      1.1861440000     -3.8054990000
H                 -4.4131770000      2.8462430000     -1.9258580000
H                 -1.9401780000      2.8895650000     -1.6643130000
H                 -4.8062400000      2.3860630000      0.2650120000
H                 -1.8075330000      2.9948220000      0.4701000000
H                 -3.0499320000      3.3309300000      1.6604700000
H                 -3.0722710000      4.2158570000      0.1264590000
H                  0.7213410000      2.1085210000      0.5921250000
H                 -2.7507080000     -5.9076260000      2.2322950000
H                 -2.9413760000     -5.9142690000      4.0182870000
H                 -3.7092530000     -4.6605300000      2.9833720000
$end

$rem
BASIS  =  6-311++G(d,p)
GUI  =  2
JOB_TYPE  =  SP
METHOD  =  B3LYP
SCF_CONVERGENCE  = 8
SOLVENT_METHOD = sm12
$end

$smx
solvent dimethylformamide
charges CM5
$end

--------------------------------------------------------------

             Standard Nuclear Orientation (Angstroms)
    I     Atom           X                Y                Z
 ----------------------------------------------------------------
    1      C       4.6082680000     5.0515060000    -1.3404630000
    2      O       3.9633950000     3.8634860000    -0.9375840000
    3      C       4.6247990000     2.6765690000    -1.0671090000
    4      C       5.9097840000     2.6096300000    -1.5858380000
    5      C       6.5672940000     1.3703300000    -1.7065460000
    6      C       5.9398490000     0.2132530000    -1.3100260000
    7      C       4.6351970000     0.2480170000    -0.7769930000
    8      C       4.0516300000    -1.0506840000    -0.3776060000
    9      O       4.7077040000    -2.0963850000    -0.5482520000
   10      C       2.7041790000    -1.0219240000     0.2001160000
   11      C       2.0584260000    -2.1959350000     0.6736720000
   12      O       2.7556260000    -3.3783750000     0.6603490000
   13      C       0.7577460000    -2.1650060000     1.1798190000
   14      C       0.1853330000    -3.4394180000     1.7782100000
   15      C      -1.3057730000    -3.3956130000     2.1714860000
   16      O      -2.1387210000    -3.7273930000     1.0600520000
   17      C      -1.6578570000    -2.0055860000     2.7472710000
   18      C      -1.3659480000    -0.8918320000     1.7453030000
   19      O      -2.3623010000    -1.0805730000     0.6701980000
   20      C      -2.6417850000     0.0313040000    -0.1254070000
   21      C      -3.3452420000    -0.4250250000    -1.4029850000
   22      C      -4.2558620000     0.6835230000    -1.9779940000
   23      N      -4.3953280000     0.5069430000    -3.4263890000
   24      C      -3.7384480000     2.0655170000    -1.5408550000
   25      O      -2.4528020000     2.2297990000    -2.1423390000
   26      C      -3.7661590000     2.1547070000     0.0045690000
   27      C      -2.8646510000     3.2432860000     0.5880720000
   28      O      -3.5153270000     0.8898420000     0.6298500000
   29      C       0.0494920000    -0.9412160000     1.2294160000
   30      C       0.6782140000     0.2386510000     0.8296300000
   31      O       0.0162440000     1.4099600000     0.9418320000
   32      C       2.0088720000     0.2224290000     0.3067810000
   33      C       2.5983150000     1.4899160000    -0.0986670000
   34      O       1.9176140000     2.5739260000     0.0374800000
   35      C       3.9412270000     1.4858400000    -0.6433090000
   36      C      -1.5880340000    -4.4397860000     3.2754700000
   37      C      -2.8289680000    -5.2910370000     3.1313730000
   38      O      -0.8513920000    -4.5427290000     4.2351130000
   39      H       3.8963320000     5.8533300000    -1.1425780000
   40      H       4.8536520000     5.0431960000    -2.4105120000
   41      H       5.5263640000     5.2353100000    -0.7672320000
   42      H       6.4198660000     3.5088150000    -1.9028700000
   43      H       7.5725750000     1.3407920000    -2.1152760000
   44      H       6.4161570000    -0.7551870000    -1.3896510000
   45      H       2.1790480000    -4.0761350000     0.9846120000
   46      H       0.7570630000    -3.6979540000     2.6783020000
   47      H       0.2792320000    -4.2801150000     1.0772330000
   48      H      -2.3411730000    -2.9022250000     0.5885200000
   49      H      -1.0562510000    -1.8408340000     3.6448880000
   50      H      -2.7144320000    -1.9729750000     3.0286890000
   51      H      -1.5659360000     0.0797510000     2.1972220000
   52      H      -1.7235880000     0.5756230000    -0.3477550000
   53      H      -2.5891590000    -0.7035000000    -2.1411230000
   54      H      -3.9428130000    -1.3141180000    -1.1883360000
   55      H      -5.2547070000     0.5760640000    -1.5412710000
   56      H      -3.4980680000     0.6845200000    -3.8702700000
   57      H      -5.0494500000     1.1861440000    -3.8054990000
   58      H      -4.4131770000     2.8462430000    -1.9258580000
   59      H      -1.9401780000     2.8895650000    -1.6643130000
   60      H      -4.8062400000     2.3860630000     0.2650120000
   61      H      -1.8075330000     2.9948220000     0.4701000000
   62      H      -3.0499320000     3.3309300000     1.6604700000
   63      H      -3.0722710000     4.2158570000     0.1264590000
   64      H       0.7213410000     2.1085210000     0.5921250000
   65      H      -2.7507080000    -5.9076260000     2.2322950000
   66      H      -2.9413760000    -5.9142690000     4.0182870000
   67      H      -3.7092530000    -4.6605300000     2.9833720000
 ----------------------------------------------------------------

   18   -1853.9017031939      8.18e-09  Convergence criterion met
 Total energy in the final basis set =    -1854.0003822400

                    Orbital Energies (a.u.)
 --------------------------------------------------------------

 Alpha MOs
 -- Occupied --
-19.1490 -19.1440 -19.1374 -19.1234 -19.1211 -19.1166 -19.1143 -19.1120
-19.0848 -19.0675 -14.2907 -10.2657 -10.2608 -10.2430 -10.2424 -10.2334
-10.2324 -10.2301 -10.2285 -10.2250 -10.2235 -10.2212 -10.2154 -10.2028
-10.1852 -10.1847 -10.1819 -10.1813 -10.1787 -10.1775 -10.1766 -10.1762
-10.1734 -10.1727 -10.1682 -10.1656 -10.1651 -10.1572  -1.0688  -1.0685
 -1.0579  -1.0569  -1.0441  -1.0314  -1.0239  -1.0038  -0.9996  -0.9962
 -0.8866  -0.8633  -0.8550  -0.8215  -0.7854  -0.7795  -0.7685  -0.7611
 -0.7548  -0.7532  -0.7394  -0.7241  -0.7008  -0.6971  -0.6699  -0.6664
 -0.6441  -0.6350  -0.6168  -0.6097  -0.5956  -0.5894  -0.5704  -0.5656
 -0.5621  -0.5374  -0.5358  -0.5302  -0.5246  -0.5219  -0.4969  -0.4931
 -0.4907  -0.4870  -0.4830  -0.4789  -0.4744  -0.4685  -0.4667  -0.4661
 -0.4602  -0.4569  -0.4487  -0.4440  -0.4427  -0.4356  -0.4291  -0.4282
 -0.4251  -0.4208  -0.4177  -0.4119  -0.4083  -0.4039  -0.4006  -0.3954
 -0.3948  -0.3908  -0.3897  -0.3835  -0.3784  -0.3737  -0.3718  -0.3716
 -0.3666  -0.3654  -0.3644  -0.3597  -0.3594  -0.3550  -0.3518  -0.3498
 -0.3451  -0.3421  -0.3290  -0.3247  -0.3192  -0.3182  -0.3013  -0.2905
 -0.2823  -0.2735  -0.2678  -0.2573  -0.2551  -0.2478  -0.2445  -0.2407
 -0.2326  -0.2272  -0.2085  -0.1382

 Beta MOs
 -- Occupied --
-19.1489 -19.1438 -19.1373 -19.1234 -19.1211 -19.1166 -19.1142 -19.1116
-19.0798 -19.0620 -14.2907 -10.2657 -10.2608 -10.2430 -10.2422 -10.2325
-10.2311 -10.2299 -10.2283 -10.2242 -10.2235 -10.2212 -10.2154 -10.2028
-10.1853 -10.1836 -10.1819 -10.1811 -10.1778 -10.1769 -10.1763 -10.1752
-10.1726 -10.1723 -10.1682 -10.1656 -10.1653 -10.1572  -1.0686  -1.0682
 -1.0575  -1.0568  -1.0417  -1.0313  -1.0239  -1.0036  -0.9906  -0.9887
 -0.8866  -0.8611  -0.8534  -0.8203  -0.7838  -0.7780  -0.7684  -0.7597
 -0.7540  -0.7520  -0.7385  -0.7220  -0.7005  -0.6967  -0.6661  -0.6642
 -0.6419  -0.6346  -0.6162  -0.6093  -0.5940  -0.5885  -0.5692  -0.5651
 -0.5619  -0.5371  -0.5346  -0.5299  -0.5243  -0.5208  -0.4963  -0.4926
 -0.4901  -0.4860  -0.4826  -0.4780  -0.4739  -0.4683  -0.4655  -0.4652
 -0.4601  -0.4562  -0.4480  -0.4422  -0.4413  -0.4338  -0.4286  -0.4265
 -0.4242  -0.4182  -0.4151  -0.4109  -0.4064  -0.4035  -0.3971  -0.3940
 -0.3926  -0.3870  -0.3860  -0.3834  -0.3780  -0.3727  -0.3713  -0.3712
 -0.3649  -0.3644  -0.3592  -0.3586  -0.3545  -0.3518  -0.3489  -0.3449
 -0.3427  -0.3408  -0.3286  -0.3244  -0.3180  -0.3143  -0.2958  -0.2887
 -0.2822  -0.2731  -0.2572  -0.2549  -0.2504  -0.2420  -0.2409  -0.2405
 -0.2260  -0.2223  -0.1999

          Ground-State Mulliken Net Atomic Charges

     Atom                 Charge (a.u.)    Spin (a.u.)
  --------------------------------------------------------
      1 C                     0.185651      -0.000738
      2 O                    -0.084611       0.003807
      3 C                     0.129046       0.028687
      4 C                     1.689908       0.036240
      5 C                     0.391554       0.070031
      6 C                    -0.451840       0.011538
      7 C                    -1.014351       0.093039
      8 C                    -1.796191       0.024396
      9 O                    -0.342415       0.211259
     10 C                    -0.973430       0.028796
     11 C                    -1.166349       0.010612
     12 O                    -0.141741       0.005375
     13 C                    -0.846570       0.075396
     14 C                    -0.352572      -0.004461
     15 C                     1.483735       0.002648
     16 O                    -0.152761      -0.000825
     17 C                     0.142034       0.001494
     18 C                     0.213900       0.013935
     19 O                     0.083693      -0.001382
     20 C                    -0.300006      -0.007484
     21 C                    -0.866719       0.002445
     22 C                     0.199521      -0.002965
     23 N                    -0.364586       0.000118
     24 C                     0.355806       0.001328
     25 O                    -0.262376      -0.000013
     26 C                     0.075990      -0.001882
     27 C                    -0.439440       0.000766
     28 O                    -0.068151      -0.000365
     29 C                    -0.613000       0.057419
     30 C                    -1.008804       0.003451
     31 O                    -0.227577       0.015365
     32 C                     0.302405       0.010971
     33 C                    -0.841326       0.126778
     34 O                    -0.311360       0.185259
     35 C                    -0.388318      -0.004290
     36 C                     0.663849       0.000409
     37 C                     0.062992       0.000021
     38 O                    -0.357817       0.000188
     39 H                     0.285380      -0.000123
     40 H                     0.205597       0.000600
     41 H                     0.206956       0.000491
     42 H                     0.385988      -0.002507
     43 H                     0.318297      -0.004871
     44 H                     0.083051      -0.000687
     45 H                     0.323343      -0.000575
     46 H                     0.235233       0.004880
     47 H                     0.199143       0.002763
     48 H                     0.278203       0.000865
     49 H                     0.171384       0.000218
     50 H                     0.262665       0.000130
     51 H                     0.202908       0.001160
     52 H                    -0.027721       0.002102
     53 H                     0.039038      -0.000323
     54 H                     0.115919       0.000208
     55 H                     0.200579      -0.000108
     56 H                     0.229385       0.000037
     57 H                     0.336822      -0.000001
     58 H                     0.323434      -0.000010
     59 H                     0.228628      -0.000244
     60 H                     0.243873      -0.000018
     61 H                    -0.029816       0.000081
     62 H                     0.140160      -0.000049
     63 H                     0.221467       0.000016
     64 H                     0.590448      -0.001393
     65 H                     0.181310      -0.000003
     66 H                     0.231594      -0.000003
     67 H                     0.208958      -0.000003
  --------------------------------------------------------
  Sum of atomic charges =    -1.000000

                    Cartesian Multipole Moments
 -----------------------------------------------------------------
    Charge (ESU x 10^10)
                -4.8032
    Dipole Moment (Debye)
         X     -12.8551      Y       6.9746      Z      -1.1562
       Tot      14.6709
    Quadrupole Moments (Debye-Ang)
        XX    -285.1887     XY      13.2440     YY    -238.4005
        XZ      -0.4549     YZ      -0.2444     ZZ    -249.3926

 Total job time:  10079.52s(wall), 43237.24s(cpu)
        *  Thank you very much for using Q-Chem.  Have a nice day.  *
