 Q-Chem 5.4, Q-Chem, Inc., Pleasanton, CA (2021)
 Q-Chem 5.4.0 for Intel X86 EM64T Linux

User input:
--------------------------------------------------------------
$molecule
-2 1
C                 -0.5688350000      2.1128880000     -0.0763840000
C                 -1.7734310000      1.3135780000     -0.0613500000
C                 -1.7165630000     -0.0949990000     -0.0068860000
C                 -0.4638410000     -0.7998920000      0.0280940000
C                  0.7348180000     -0.0058480000      0.0159180000
C                  0.6900990000      1.4031890000     -0.0373120000
O                 -0.6156800000      3.4179160000     -0.1306380000
O                 -0.4164140000     -2.1115990000      0.0714850000
C                  1.9097490000      2.3286060000     -0.0725070000
C                  2.7527970000      2.3506880000      1.2221940000
C                  2.7940310000      2.2048320000     -1.3321040000
C                  2.0631030000     -0.7662830000      0.0743070000
C                  2.2119300000     -1.5826770000      1.3772270000
C                  2.2751340000     -1.6712390000     -1.1591380000
C                 -3.0562820000      2.1477640000     -0.1236370000
C                 -3.9209550000      2.1140330000      1.1565880000
C                 -3.9071600000      1.9543920000     -1.3973310000
C                 -2.9870800000     -0.9496850000      0.0294470000
C                 -3.1125220000     -1.8667150000     -1.2068730000
C                 -3.0985020000     -1.7757360000      1.3300880000
H                  1.4413630000      3.3164480000     -0.1353370000
H                  3.5038750000      3.1572610000      1.1863520000
H                  3.2874730000      1.4137260000      1.4110000000
H                  2.1022640000      2.5375700000      2.0820090000
H                  3.3353970000      1.2554300000     -1.3961700000
H                  3.5408290000      3.0132170000     -1.3630840000
H                  2.1717860000      2.2898700000     -2.2284960000
H                  2.8769210000     -0.0407950000      0.0705090000
H                  2.1731060000     -0.9197780000      2.2493390000
H                  3.1735110000     -2.1197350000      1.4003070000
H                  1.3906180000     -2.2998070000      1.4424780000
H                  1.4615150000     -2.3981800000     -1.2096120000
H                  3.2407290000     -2.1999610000     -1.1003950000
H                  2.2713570000     -1.0733970000     -2.0776330000
H                 -2.6600320000      3.1668050000     -0.1837640000
H                 -4.7306960000      2.8607140000      1.1024750000
H                 -3.3013370000      2.3552310000      2.0256850000
H                 -4.3859210000      1.1402010000      1.3434190000
H                 -4.7078630000      2.7081900000     -1.4470510000
H                 -4.3798440000      0.9692020000     -1.4637670000
H                 -3.2767390000      2.0771730000     -2.2836230000
H                 -3.8509660000     -0.2848990000      0.0119650000
H                 -4.0393890000     -2.4621950000     -1.1650420000
H                 -2.2489180000     -2.5344760000     -1.2422740000
H                 -3.1344350000     -1.2696800000     -2.1256170000
H                 -4.0183850000     -2.3817470000      1.3364430000
H                 -3.1240870000     -1.1124300000      2.2024130000
H                 -2.2281880000     -2.4308830000      1.4102820000
$end
$rem
MAX_SCF_CYCLES=200
BASIS  =  6-311++G(d,p)
GUI  =  2
JOB_TYPE  =  SP
METHOD  =  B3LYP
SOLVENT_METHOD = COSMO
$end
$solvent
dielectric 37.219
opticaldielectric 1.43
$end

--------------------------------------------------------------

             Standard Nuclear Orientation (Angstroms)
    I     Atom           X                Y                Z
 ----------------------------------------------------------------
    1      C       0.0001218562    -1.6566891794    -0.0051578005
    2      C      -1.2325684981    -0.9012876805    -0.0010242419
    3      C      -1.2264857027     0.5094710551     0.0024759232
    4      C       0.0000283944     1.2598146353     0.0100806804
    5      C       1.2266217421     0.5095750123     0.0032400133
    6      C       1.2327079317    -0.9011553411    -0.0013770913
    7      O       0.0002880958    -2.9636840641    -0.0045454430
    8      O       0.0000963027     2.5730536454     0.0205997472
    9      C       2.4848378844    -1.7827618084     0.0096706621
   10      C       3.3405282446    -1.7213438401    -1.2754324720
   11      C       3.3518891688    -1.6790594809     1.2829841186
   12      C       2.5268485719     1.3190569065    -0.0094469731
   13      C       2.6583708586     2.1930645457    -1.2763572699
   14      C       2.6939437982     2.1796666848     1.2620557087
   15      C      -2.4847466526    -1.7829361940     0.0130615375
   16      C      -3.3377374118    -1.7278162146    -1.2742386530
   17      C      -3.3542941329    -1.6727389381     1.2840557354
   18      C      -2.5268612723     1.3186687598    -0.0131492352
   19      C      -2.6974669336     2.1790762686     1.2579760481
   20      C      -2.6557769096     2.1928632546    -1.2802746714
   21      H       2.0521348825    -2.7885599785     0.0270782530
   22      H       4.1200865146    -2.5011664320    -1.2640991402
   23      H       3.8425361983    -0.7587946056    -1.4200385075
   24      H       2.7055171576    -1.8960597024    -2.1492946963
   25      H       3.8577006580    -0.7142269001     1.3916054068
   26      H       4.1272831252    -2.4606457869     1.2893386359
   27      H       2.7245700932    -1.8231465727     2.1682234119
   28      H       3.3664589160     0.6237706740    -0.0261360453
   29      H       2.6520789522     1.5655515389    -2.1750839058
   30      H       3.5999446982     2.7648613361    -1.2669160574
   31      H       1.8121663148     2.8822578987    -1.3214895595
   32      H       1.8539581224     2.8741833919     1.3330298409
   33      H       3.6401747569     2.7447480378     1.2355710976
   34      H       2.7031066244     1.5448815268     2.1553788492
   35      H      -2.0522649553    -2.7886714565     0.0360841695
   36      H      -4.1202472950    -2.5047349744    -1.2595164569
   37      H      -2.7014316261    -1.9106936682    -2.1455040091
   38      H      -3.8360238859    -0.7644941739    -1.4264529872
   39      H      -4.1274711874    -2.4562586520     1.2941995811
   40      H      -3.8631392722    -0.7087484649     1.3852596578
   41      H      -2.7283642943    -1.8090347555     2.1715548102
   42      H      -3.3661066600     0.6230785914    -0.0322950916
   43      H      -3.6449489225     2.7420424538     1.2301254876
   44      H      -1.8591195910     2.8754563492     1.3300757655
   45      H      -2.7064590176     1.5444342624     2.1513797501
   46      H      -3.5970039079     2.7651399236    -1.2721750612
   47      H      -2.6488223397     1.5654288573    -2.1790839162
   48      H      -1.8091548711     2.8816339576    -1.3241058296
 ----------------------------------------------------------------

   11    -853.4273618383      5.53e-06  Convergence criterion met
 Total energy in the final basis set =     -853.4273618383
    5    -853.6826317550      4.83e-06  Convergence criterion met
 Total energy in the final basis set =     -853.6826317550

                    Orbital Energies (a.u.)
 --------------------------------------------------------------

 Alpha MOs
 -- Occupied --
-19.0034 -18.9880 -10.1501 -10.1456 -10.1390 -10.1389 -10.1362 -10.1362
-10.1358 -10.1358 -10.1355 -10.1355 -10.1266 -10.1266 -10.1264 -10.1263
-10.1117 -10.1117 -10.1102 -10.1102  -0.9172  -0.9022  -0.7867  -0.7798
 -0.7549  -0.7516  -0.7235  -0.6661  -0.6616  -0.6615  -0.6523  -0.6519
 -0.6269  -0.5953  -0.5660  -0.5436  -0.5253  -0.4975  -0.4806  -0.4487
 -0.4345  -0.4196  -0.4115  -0.4112  -0.4055  -0.4034  -0.3931  -0.3912
 -0.3858  -0.3825  -0.3801  -0.3742  -0.3676  -0.3617  -0.3582  -0.3569
 -0.3541  -0.3443  -0.3303  -0.3182  -0.3179  -0.3130  -0.3105  -0.3102
 -0.3054  -0.3023  -0.3005  -0.2952  -0.2843  -0.2796  -0.2699  -0.2676
 -0.2023  -0.1822  -0.1815  -0.1636  -0.1012

          Ground-State Mulliken Net Atomic Charges

     Atom                 Charge (a.u.)
  ----------------------------------------
      1 C                    -1.179602
      2 C                     0.468842
      3 C                     0.167746
      4 C                    -0.523930
      5 C                     0.169173
      6 C                     0.467658
      7 O                    -0.709940
      8 O                    -0.654208
      9 C                     0.223466
     10 C                    -0.752039
     11 C                    -0.750756
     12 C                     0.742700
     13 C                    -0.767204
     14 C                    -0.773868
     15 C                     0.223479
     16 C                    -0.750512
     17 C                    -0.753041
     18 C                     0.743395
     19 C                    -0.774345
     20 C                    -0.766473
     21 H                     0.179664
     22 H                     0.140505
     23 H                     0.143354
     24 H                     0.150563
     25 H                     0.143816
     26 H                     0.140726
     27 H                     0.149366
     28 H                     0.104081
     29 H                     0.113088
     30 H                     0.137554
     31 H                     0.159262
     32 H                     0.161299
     33 H                     0.138057
     34 H                     0.113315
     35 H                     0.179386
     36 H                     0.140416
     37 H                     0.150809
     38 H                     0.143487
     39 H                     0.140789
     40 H                     0.144164
     41 H                     0.149148
     42 H                     0.103416
     43 H                     0.138111
     44 H                     0.161406
     45 H                     0.113561
     46 H                     0.137390
     47 H                     0.112999
     48 H                     0.159725
  ----------------------------------------
  Sum of atomic charges =    -2.000000

                    Cartesian Multipole Moments
 -----------------------------------------------------------------
    Charge (ESU x 10^10)
                -9.6064
    Dipole Moment (Debye)
         X      -0.0034      Y       1.5507      Z      -0.0270
       Tot       1.5510
    Quadrupole Moments (Debye-Ang)
        XX    -154.4822     XY       0.0046     YY    -203.2442
        XZ      -0.0060     YZ      -0.2919     ZZ    -144.4514

 Total job time:  228.01s(wall), 1587.88s(cpu)
        *  Thank you very much for using Q-Chem.  Have a nice day.  *
