 Gaussian 16, Revision A.03,
 Gaussian 16:  ES64L-G16RevA.03 25-Dec-2016

 ----------------------------------------------------------------
 #P UB3LYP/6-311++G(d,p) SCRF=(PCM,Solvent=n,n-DiMethylFormamide)
 ----------------------------------------------------------------

 -------
 Reduced
 -------
 Symbolic Z-matrix:
 Charge = -2 Multiplicity = 1

                         Standard orientation:
 ---------------------------------------------------------------------
 Center     Atomic      Atomic             Coordinates (Angstroms)
 Number     Number       Type             X           Y           Z
 ---------------------------------------------------------------------
      1          6           0       -1.300461    2.378080   -0.207214
      2          6           0       -0.440917    3.447254   -0.714831
      3          6           0        0.890901    3.303763   -0.927726
      4          6           0        1.612573    2.042861   -0.757570
      5          6           0        0.814931    0.949523   -0.255710
      6          6           0       -0.580907    1.184500    0.112969
      7          8           0       -2.546133    2.586390   -0.067021
      8          8           0        2.824347    1.977429   -1.145337
      9         16           0       -1.387211    0.090221    1.242254
     10          6           0       -2.627579   -0.845177    0.286047
     11          6           0       -3.832820   -0.227644   -0.055147
     12          6           0       -2.356443   -2.158603   -0.094417
     13          6           0       -3.320382   -2.874786   -0.804068
     14          6           0       -4.786197   -0.952603   -0.769112
     15          6           0       -4.538522   -2.277979   -1.138114
     16          8           0       -2.176060    0.825690    2.256741
     17          8           0       -0.437572   -0.914026    1.771947
     18          1           0       -0.943472    4.395636   -0.899335
     19          1           0        1.491498    4.131304   -1.302183
     20          1           0       -3.969692    0.814947    0.211842
     21          1           0       -1.390767   -2.581890    0.150852
     22          1           0       -3.115497   -3.898392   -1.105490
     23          1           0       -5.725012   -0.479163   -1.043759
     24          1           0       -5.285936   -2.838540   -1.693797
     25          6           0        1.315962   -0.401080   -0.470160
     26          6           0        2.773696   -0.722712   -0.202692
     27          6           0        3.510117   -0.078873    0.798211
     28          6           0        3.367504   -1.791610   -0.881718
     29          6           0        4.800677   -0.493925    1.112513
     30          6           0        5.393383   -1.551172    0.414495
     31          6           0        4.670698   -2.195503   -0.589829
     32          8           0        0.614085   -1.346092   -0.870314
     33          1           0        3.050803    0.748956    1.323559
     34          1           0        2.778652   -2.302558   -1.634937
     35          1           0        5.353710    0.014142    1.898006
     36          1           0        6.404860   -1.869208    0.654598
     37          1           0        5.119609   -3.019782   -1.139125
 ---------------------------------------------------------------------

 SCF Done:  E(UB3LYP) =  -1506.07126100     A.U. after   18 cycles

 The electronic state is 1-A.
 Alpha  occ. eigenvalues --  -89.02678 -19.09310 -19.09250 -19.07623 -19.04268
 Alpha  occ. eigenvalues --  -19.03691 -10.23107 -10.20724 -10.20303 -10.19392
 Alpha  occ. eigenvalues --  -10.17872 -10.17771 -10.17708 -10.17689 -10.17504
 Alpha  occ. eigenvalues --  -10.17265 -10.17047 -10.17042 -10.16928 -10.16764
 Alpha  occ. eigenvalues --  -10.16701 -10.16224 -10.15499 -10.15310 -10.14632
 Alpha  occ. eigenvalues --   -8.09009  -6.05331  -6.05185  -6.05072  -1.08403
 Alpha  occ. eigenvalues --   -1.00495  -0.97820  -0.96595  -0.96012  -0.86177
 Alpha  occ. eigenvalues --   -0.85160  -0.80532  -0.76614  -0.75522  -0.74987
 Alpha  occ. eigenvalues --   -0.74196  -0.73807  -0.69646  -0.64832  -0.62727
 Alpha  occ. eigenvalues --   -0.60940  -0.60276  -0.59821  -0.58098  -0.55039
 Alpha  occ. eigenvalues --   -0.53380  -0.52035  -0.49805  -0.47730  -0.46670
 Alpha  occ. eigenvalues --   -0.46165  -0.45828  -0.45636  -0.44571  -0.44181
 Alpha  occ. eigenvalues --   -0.43505  -0.42860  -0.42481  -0.42248  -0.41609
 Alpha  occ. eigenvalues --   -0.40604  -0.38569  -0.38311  -0.37821  -0.37477
 Alpha  occ. eigenvalues --   -0.36659  -0.36077  -0.35533  -0.35233  -0.34670
 Alpha  occ. eigenvalues --   -0.34339  -0.33677  -0.33258  -0.31769  -0.30487
 Alpha  occ. eigenvalues --   -0.28434  -0.28078  -0.26465  -0.25956  -0.25463
 Alpha  occ. eigenvalues --   -0.25417  -0.24620  -0.23702  -0.22901  -0.21477
 Alpha  occ. eigenvalues --   -0.20374  -0.14597
 Alpha virt. eigenvalues --   -0.05204  -0.02907  -0.01457  -0.00985  -0.00691
 Alpha virt. eigenvalues --   -0.00108   0.00416   0.00997   0.01785   0.02042
 Alpha virt. eigenvalues --    0.02217   0.02892   0.03373   0.03824   0.04064

  Beta  occ. eigenvalues --  -89.02678 -19.09310 -19.09250 -19.07623 -19.04268
  Beta  occ. eigenvalues --  -19.03691 -10.23107 -10.20724 -10.20303 -10.19392
  Beta  occ. eigenvalues --  -10.17872 -10.17771 -10.17708 -10.17689 -10.17504
  Beta  occ. eigenvalues --  -10.17265 -10.17047 -10.17042 -10.16928 -10.16764
  Beta  occ. eigenvalues --  -10.16701 -10.16224 -10.15499 -10.15310 -10.14632
  Beta  occ. eigenvalues --   -8.09009  -6.05331  -6.05185  -6.05072  -1.08403
  Beta  occ. eigenvalues --   -1.00495  -0.97820  -0.96595  -0.96012  -0.86177
  Beta  occ. eigenvalues --   -0.85160  -0.80532  -0.76614  -0.75522  -0.74987
  Beta  occ. eigenvalues --   -0.74196  -0.73807  -0.69646  -0.64832  -0.62727
  Beta  occ. eigenvalues --   -0.60940  -0.60276  -0.59821  -0.58098  -0.55039
  Beta  occ. eigenvalues --   -0.53380  -0.52035  -0.49805  -0.47730  -0.46670
  Beta  occ. eigenvalues --   -0.46165  -0.45828  -0.45636  -0.44571  -0.44181
  Beta  occ. eigenvalues --   -0.43505  -0.42860  -0.42481  -0.42248  -0.41609
  Beta  occ. eigenvalues --   -0.40604  -0.38569  -0.38311  -0.37821  -0.37477
  Beta  occ. eigenvalues --   -0.36659  -0.36077  -0.35533  -0.35233  -0.34670
  Beta  occ. eigenvalues --   -0.34339  -0.33677  -0.33258  -0.31769  -0.30487
  Beta  occ. eigenvalues --   -0.28434  -0.28078  -0.26465  -0.25956  -0.25463
  Beta  occ. eigenvalues --   -0.25417  -0.24620  -0.23702  -0.22901  -0.21477
  Beta  occ. eigenvalues --   -0.20374  -0.14597
  Beta virt. eigenvalues --   -0.05204  -0.02907  -0.01457  -0.00985  -0.00691
  Beta virt. eigenvalues --   -0.00108   0.00416   0.00997   0.01785   0.02042
  Beta virt. eigenvalues --    0.02217   0.02892   0.03373   0.03824   0.04064

 Mulliken charges and spin densities:
               1          2
     1  C    0.023765   0.000000
     2  C   -0.392866   0.000000
     3  C   -0.261721  -0.000000
     4  C   -0.531318   0.000000
     5  C    0.618139  -0.000000
     6  C   -0.100951   0.000000
     7  O   -0.490634   0.000000
     8  O   -0.490477   0.000000
     9  S    0.404166  -0.000000
    10  C   -0.124427  -0.000000
    11  C   -0.028277   0.000000
    12  C    0.311446   0.000000
    13  C   -0.530840   0.000000
    14  C   -0.552382   0.000000
    15  C   -0.235338   0.000000
    16  O   -0.187073   0.000000
    17  O   -0.260378   0.000000
    18  H    0.179607  -0.000000
    19  H    0.181561   0.000000
    20  H    0.277561   0.000000
    21  H    0.258351   0.000000
    22  H    0.201158  -0.000000
    23  H    0.198261   0.000000
    24  H    0.185538  -0.000000
    25  C   -0.706655  -0.000000
    26  C    0.972108   0.000000
    27  C   -0.896871  -0.000000
    28  C    0.571355   0.000000
    29  C   -0.577350  -0.000000
    30  C   -0.375053   0.000000
    31  C   -0.270093   0.000000
    32  O   -0.306407   0.000000
    33  H    0.183750   0.000000
    34  H    0.194963  -0.000000
    35  H    0.195620  -0.000000
    36  H    0.171633   0.000000
    37  H    0.190128   0.000000
 Sum of Mulliken charges =  -2.00000  -0.00000

 Dipole moment (field-independent basis, Debye):
    X=              0.4398    Y=             -9.6608    Z=             -2.2524  Tot=              9.9296
 Quadrupole moment (field-independent basis, Debye-Ang):
   XX=           -200.7173   YY=           -187.5329   ZZ=           -181.5844
   XY=              6.5652   XZ=             25.3449   YZ=              8.4657

 Normal termination of Gaussian 16 at Wed Jan 24 23:03:04 2024.
