 Gaussian 16, Revision A.03,
 Gaussian 16:  ES64L-G16RevA.03 25-Dec-2016

 ----------------------------------------------------------------
 #P UB3LYP/6-311++G(d,p) SCRF=(PCM,Solvent=n,n-DiMethylFormamide)
 ----------------------------------------------------------------

 -------
 Reduced
 -------
 Symbolic Z-matrix:
 Charge = -2 Multiplicity = 1

                         Standard orientation:
 ---------------------------------------------------------------------
 Center     Atomic      Atomic             Coordinates (Angstroms)
 Number     Number       Type             X           Y           Z
 ---------------------------------------------------------------------
      1          6           0       -5.099060   -0.125871    1.293989
      2          6           0       -4.391115    0.280265   -0.015575
      3          6           0       -5.125712   -0.321000   -1.229753
      4          6           0       -2.906417   -0.058947   -0.001075
      5          6           0       -2.457723   -1.409196   -0.005791
      6          6           0       -1.104754   -1.697470   -0.007098
      7          6           0       -0.106493   -0.694323   -0.012315
      8          6           0       -0.548981    0.670576   -0.022859
      9          6           0       -1.947139    0.932980   -0.008507
     10          6           0        0.365510    1.803187   -0.035212
     11          8           0       -0.065084    2.991197   -0.059454
     12          6           0        1.822551    1.519143    0.000173
     13          8           0        2.645086    2.480853    0.022839
     14          6           0        2.260470    0.119258    0.000759
     15          6           0        3.665817   -0.216600    0.009226
     16          6           0        4.763364    0.829227   -0.000540
     17          6           0        4.070014   -1.541773    0.019042
     18          6           0        3.138058   -2.603739    0.021321
     19          6           0        1.790490   -2.307834    0.009552
     20          6           0        1.309487   -0.979333   -0.000944
     21          1           0       -4.611445    0.338236    2.156457
     22          1           0       -5.066754   -1.212064    1.438215
     23          1           0       -6.154671    0.176876    1.289679
     24          1           0       -4.462038    1.371579   -0.097893
     25          1           0       -4.656733    0.000535   -2.164801
     26          1           0       -6.179765   -0.019279   -1.248775
     27          1           0       -5.100335   -1.415374   -1.208207
     28          1           0       -3.174165   -2.226263    0.008695
     29          1           0       -0.814652   -2.743202   -0.008120
     30          1           0       -2.231004    1.981332   -0.012984
     31          1           0        4.700229    1.491479    0.864730
     32          1           0        5.742016    0.327946   -0.010181
     33          1           0        4.683773    1.490429   -0.865325
     34          1           0        5.135505   -1.764573    0.023648
     35          1           0        3.477685   -3.636574    0.029578
     36          1           0        1.082145   -3.128775    0.011857
 ---------------------------------------------------------------------

 SCF Done:  E(UB3LYP) =  -846.476501697     A.U. after   20 cycles

 The electronic state is 1-A.
 Alpha  occ. eigenvalues --  -19.01410 -19.00908 -10.16647 -10.16296 -10.15874
 Alpha  occ. eigenvalues --  -10.15447 -10.15097 -10.15028 -10.15005 -10.14882
 Alpha  occ. eigenvalues --  -10.14641 -10.14538 -10.14315 -10.14211 -10.14105
 Alpha  occ. eigenvalues --  -10.14047 -10.14032 -10.13693 -10.13449 -10.13138
 Alpha  occ. eigenvalues --   -0.95112  -0.92140  -0.83904  -0.82112  -0.78690
 Alpha  occ. eigenvalues --   -0.74894  -0.73837  -0.71919  -0.68753  -0.67504
 Alpha  occ. eigenvalues --   -0.66492  -0.63045  -0.60357  -0.57846  -0.56179
 Alpha  occ. eigenvalues --   -0.54707  -0.53088  -0.48954  -0.47341  -0.45670
 Alpha  occ. eigenvalues --   -0.43889  -0.43464  -0.42964  -0.41139  -0.40475
 Alpha  occ. eigenvalues --   -0.40389  -0.39504  -0.39440  -0.38557  -0.37798
 Alpha  occ. eigenvalues --   -0.36994  -0.36641  -0.36352  -0.36033  -0.34348
 Alpha  occ. eigenvalues --   -0.33726  -0.33397  -0.32915  -0.32085  -0.31899
 Alpha  occ. eigenvalues --   -0.31779  -0.30042  -0.29505  -0.27923  -0.25481
 Alpha  occ. eigenvalues --   -0.22569  -0.21797  -0.20106  -0.18781  -0.17435
 Alpha  occ. eigenvalues --   -0.10069
 Alpha virt. eigenvalues --   -0.01355  -0.00233   0.00071   0.00405   0.01202
 Alpha virt. eigenvalues --    0.01979   0.02070   0.02104   0.03397   0.03610
 Alpha virt. eigenvalues --    0.03795   0.03983   0.04313   0.05129   0.05168

  Beta  occ. eigenvalues --  -19.01410 -19.00908 -10.16647 -10.16296 -10.15874
  Beta  occ. eigenvalues --  -10.15447 -10.15097 -10.15028 -10.15005 -10.14882
  Beta  occ. eigenvalues --  -10.14641 -10.14538 -10.14315 -10.14211 -10.14105
  Beta  occ. eigenvalues --  -10.14047 -10.14032 -10.13693 -10.13449 -10.13138
  Beta  occ. eigenvalues --   -0.95112  -0.92140  -0.83904  -0.82112  -0.78690
  Beta  occ. eigenvalues --   -0.74894  -0.73837  -0.71919  -0.68753  -0.67504
  Beta  occ. eigenvalues --   -0.66492  -0.63045  -0.60357  -0.57846  -0.56179
  Beta  occ. eigenvalues --   -0.54707  -0.53088  -0.48954  -0.47341  -0.45670
  Beta  occ. eigenvalues --   -0.43889  -0.43464  -0.42964  -0.41139  -0.40475
  Beta  occ. eigenvalues --   -0.40389  -0.39504  -0.39440  -0.38557  -0.37798
  Beta  occ. eigenvalues --   -0.36994  -0.36641  -0.36352  -0.36033  -0.34348
  Beta  occ. eigenvalues --   -0.33726  -0.33397  -0.32915  -0.32085  -0.31899
  Beta  occ. eigenvalues --   -0.31779  -0.30042  -0.29505  -0.27923  -0.25481
  Beta  occ. eigenvalues --   -0.22569  -0.21797  -0.20106  -0.18781  -0.17435
  Beta  occ. eigenvalues --   -0.10069
  Beta virt. eigenvalues --   -0.01355  -0.00233   0.00071   0.00405   0.01202
  Beta virt. eigenvalues --    0.01979   0.02070   0.02104   0.03397   0.03610
  Beta virt. eigenvalues --    0.03795   0.03983   0.04313   0.05129   0.05168

 Mulliken charges and spin densities:
               1          2
     1  C   -0.691337  -0.000000
     2  C    0.155152   0.000000
     3  C   -0.656268   0.000000
     4  C    0.608721   0.000000
     5  C   -0.875359  -0.000000
     6  C   -0.267856  -0.000000
     7  C    0.404956   0.000000
     8  C    0.746283   0.000000
     9  C   -0.420903   0.000000
    10  C   -0.691945  -0.000000
    11  O   -0.654662   0.000000
    12  C   -0.804630   0.000000
    13  O   -0.608544  -0.000000
    14  C    0.467728  -0.000000
    15  C    0.494349  -0.000000
    16  C   -0.351463  -0.000000
    17  C   -0.465255  -0.000000
    18  C   -0.668611  -0.000000
    19  C   -0.403156  -0.000000
    20  C    0.506935   0.000000
    21  H    0.137094   0.000000
    22  H    0.155010   0.000000
    23  H    0.147738   0.000000
    24  H    0.179619   0.000000
    25  H    0.134444  -0.000000
    26  H    0.148634   0.000000
    27  H    0.150272   0.000000
    28  H    0.160985  -0.000000
    29  H    0.080800   0.000000
    30  H    0.135055  -0.000000
    31  H    0.145218   0.000000
    32  H    0.122861   0.000000
    33  H    0.144421   0.000000
    34  H    0.093485  -0.000000
    35  H    0.174172  -0.000000
    36  H    0.066057  -0.000000
 Sum of Mulliken charges =  -2.00000  -0.00000

 Dipole moment (field-independent basis, Debye):
    X=            -10.2861    Y=            -15.1546    Z=              0.1180  Tot=             18.3161
 Quadrupole moment (field-independent basis, Debye-Ang):
   XX=           -166.7745   YY=           -183.6484   ZZ=           -133.2536
   XY=            -15.5656   XZ=             -0.2240   YZ=              0.3719

 Normal termination of Gaussian 16 at Sat Jan 13 19:22:24 2024.
