 Gaussian 16, Revision A.03,
 Gaussian 16:  ES64L-G16RevA.03 25-Dec-2016

 ----------------------------------------------------------------------
 #P UB3LYP/6-311++G(d,p) nosym opt freq SCRF=(PCM,Solvent=n,n-DiMethylF
 ormamide)
 ----------------------------------------------------------------------

 -------
 Radical
 -------
 Symbolic Z-matrix:
 Charge = -1 Multiplicity = 2

 SCF Done:  E(UB3LYP) =  -853.589419515     A.U. after   18 cycles
 SCF Done:  E(UB3LYP) =  -853.589487953     A.U. after   14 cycles
 SCF Done:  E(UB3LYP) =  -853.589729832     A.U. after   14 cycles
 SCF Done:  E(UB3LYP) =  -853.589413963     A.U. after   14 cycles
 SCF Done:  E(UB3LYP) =  -853.589819983     A.U. after   14 cycles
 SCF Done:  E(UB3LYP) =  -853.589817995     A.U. after   12 cycles
 SCF Done:  E(UB3LYP) =  -853.589791344     A.U. after   13 cycles
 SCF Done:  E(UB3LYP) =  -853.589824659     A.U. after   13 cycles
 SCF Done:  E(UB3LYP) =  -853.589830268     A.U. after   11 cycles
 SCF Done:  E(UB3LYP) =  -853.589830919     A.U. after    9 cycles
 SCF Done:  E(UB3LYP) =  -853.589831211     A.U. after    9 cycles
 SCF Done:  E(UB3LYP) =  -853.589831397     A.U. after    8 cycles
 SCF Done:  E(UB3LYP) =  -853.589832088     A.U. after   10 cycles
 SCF Done:  E(UB3LYP) =  -853.589832227     A.U. after    9 cycles
 SCF Done:  E(UB3LYP) =  -853.589832287     A.U. after    8 cycles
 Optimization completed.
    -- Stationary point found.
 Normal termination of Gaussian 16 at Sat Feb 10 14:43:44 2024.

 ----------------------------------------------------------------------
 #P Geom=AllCheck Guess=TCheck SCRF=Check GenChk UB3LYP/6-311++G(d,p) F
 req
 ----------------------------------------------------------------------

 Structure from the checkpoint file:  "054-rad.chk"
 -------
 Radical
 -------
 Charge = -1 Multiplicity = 2

                          Input orientation:
 ---------------------------------------------------------------------
 Center     Atomic      Atomic             Coordinates (Angstroms)
 Number     Number       Type             X           Y           Z
 ---------------------------------------------------------------------
      1          6           0       -0.567793    2.080597   -0.095750
      2          6           0       -1.806904    1.299380   -0.070715
      3          6           0       -1.753405   -0.081557    0.001114
      4          6           0       -0.465919   -0.770854    0.050252
      5          6           0        0.769101    0.009679    0.024232
      6          6           0        0.723715    1.391377   -0.038226
      7          8           0       -0.613257    3.355033   -0.169312
      8          8           0       -0.420951   -2.041147    0.116238
      9          6           0        1.941835    2.322858   -0.056540
     10          6           0        2.788461    2.297870    1.232949
     11          6           0        2.806233    2.218298   -1.330091
     12          6           0        2.090054   -0.760730    0.064218
     13          6           0        2.294998   -1.548533    1.374133
     14          6           0        2.299435   -1.661139   -1.170647
     15          6           0       -3.088400    2.139690   -0.130795
     16          6           0       -3.953694    2.078753    1.144960
     17          6           0       -3.920042    1.946412   -1.415657
     18          6           0       -3.015194   -0.945763    0.031502
     19          6           0       -3.143018   -1.874017   -1.193717
     20          6           0       -3.176697   -1.732440    1.348369
     21          1           0        1.499702    3.318792   -0.090318
     22          1           0        3.520159    3.113090    1.212543
     23          1           0        3.340982    1.366536    1.375595
     24          1           0        2.154745    2.444132    2.112767
     25          1           0        3.349053    1.273772   -1.411438
     26          1           0        3.547189    3.025254   -1.345335
     27          1           0        2.186257    2.321164   -2.225678
     28          1           0        2.889841   -0.025554    0.032143
     29          1           0        2.208541   -0.889573    2.243674
     30          1           0        3.296144   -1.993742    1.392435
     31          1           0        1.557621   -2.344802    1.472167
     32          1           0        1.557805   -2.458872   -1.204924
     33          1           0        3.297880   -2.111811   -1.142584
     34          1           0        2.223317   -1.079846   -2.094890
     35          1           0       -2.718921    3.164385   -0.178918
     36          1           0       -4.746441    2.833262    1.093449
     37          1           0       -3.348941    2.294000    2.030959
     38          1           0       -4.433792    1.110022    1.300759
     39          1           0       -4.712667    2.701330   -1.463302
     40          1           0       -4.397512    0.966226   -1.482749
     41          1           0       -3.292021    2.069363   -2.303065
     42          1           0       -3.866087   -0.271356   -0.017374
     43          1           0       -4.110305   -2.388666   -1.176134
     44          1           0       -2.349982   -2.621461   -1.202412
     45          1           0       -3.088057   -1.301800   -2.125090
     46          1           0       -4.140921   -2.252988    1.359809
     47          1           0       -3.152133   -1.059661    2.211261
     48          1           0       -2.381679   -2.468679    1.464130
 ---------------------------------------------------------------------

 SCF Done:  E(UB3LYP) =  -853.589832287     A.U. after    1 cycles

 Alpha  occ. eigenvalues --  -19.06178 -19.05600 -10.20519 -10.20236 -10.16112
 Alpha  occ. eigenvalues --  -10.16109 -10.15840 -10.15839 -10.15559 -10.15557
 Alpha  occ. eigenvalues --  -10.15486 -10.15484 -10.14921 -10.14914 -10.14913
 Alpha  occ. eigenvalues --  -10.14908 -10.14276 -10.14272 -10.14268 -10.14257
 Alpha  occ. eigenvalues --   -0.98284  -0.97905  -0.82402  -0.80779  -0.77551
 Alpha  occ. eigenvalues --   -0.77319  -0.75368  -0.70254  -0.67673  -0.67660
 Alpha  occ. eigenvalues --   -0.66955  -0.66921  -0.65952  -0.62210  -0.59401
 Alpha  occ. eigenvalues --   -0.56793  -0.55194  -0.52800  -0.51613  -0.47898
 Alpha  occ. eigenvalues --   -0.45765  -0.44748  -0.43408  -0.43012  -0.42228
 Alpha  occ. eigenvalues --   -0.42022  -0.41973  -0.41415  -0.40290  -0.40205
 Alpha  occ. eigenvalues --   -0.40079  -0.39787  -0.39097  -0.38821  -0.38767
 Alpha  occ. eigenvalues --   -0.37588  -0.37372  -0.36979  -0.36491  -0.34644
 Alpha  occ. eigenvalues --   -0.34044  -0.33715  -0.33340  -0.33158  -0.32915
 Alpha  occ. eigenvalues --   -0.32902  -0.32798  -0.32443  -0.31983  -0.30949
 Alpha  occ. eigenvalues --   -0.29843  -0.29831  -0.25648  -0.22737  -0.22501
 Alpha  occ. eigenvalues --   -0.21131  -0.14507
 Alpha virt. eigenvalues --   -0.00692   0.00191   0.00593   0.00666   0.00831
 Alpha virt. eigenvalues --    0.01746   0.02047   0.02174   0.02803   0.02905
 Alpha virt. eigenvalues --    0.03715   0.03857   0.04269   0.04284   0.04603

  Beta  occ. eigenvalues --  -19.05518 -19.04921 -10.20334 -10.20081 -10.16120
  Beta  occ. eigenvalues --  -10.16116 -10.15848 -10.15847 -10.15465 -10.15463
  Beta  occ. eigenvalues --  -10.15375 -10.15374 -10.14915 -10.14908 -10.14907
  Beta  occ. eigenvalues --  -10.14902 -10.14270 -10.14265 -10.14262 -10.14251
  Beta  occ. eigenvalues --   -0.97120  -0.96700  -0.81989  -0.80678  -0.77507
  Beta  occ. eigenvalues --   -0.77227  -0.75118  -0.70089  -0.67657  -0.67646
  Beta  occ. eigenvalues --   -0.66933  -0.66903  -0.65071  -0.62019  -0.59226
  Beta  occ. eigenvalues --   -0.56563  -0.55150  -0.52635  -0.51262  -0.47745
  Beta  occ. eigenvalues --   -0.45664  -0.44513  -0.43389  -0.42937  -0.42212
  Beta  occ. eigenvalues --   -0.42008  -0.41346  -0.41293  -0.40194  -0.40138
  Beta  occ. eigenvalues --   -0.39916  -0.39747  -0.38645  -0.38312  -0.38266
  Beta  occ. eigenvalues --   -0.37575  -0.37290  -0.36971  -0.35365  -0.33924
  Beta  occ. eigenvalues --   -0.33670  -0.33368  -0.33279  -0.32885  -0.32798
  Beta  occ. eigenvalues --   -0.32746  -0.32632  -0.31913  -0.31362  -0.30814
  Beta  occ. eigenvalues --   -0.29750  -0.29734  -0.22627  -0.22151  -0.21815
  Beta  occ. eigenvalues --   -0.20580
  Beta virt. eigenvalues --   -0.07389  -0.00679   0.00191   0.00679   0.00902
  Beta virt. eigenvalues --    0.01688   0.01748   0.02063   0.02259   0.02851
  Beta virt. eigenvalues --    0.02916   0.03729   0.04270   0.04283   0.04473

 Mulliken charges and spin densities:
               1          2
     1  C   -1.223502   0.127985
     2  C    0.538906   0.050999
     3  C    0.317159   0.087536
     4  C   -0.725534   0.112384
     5  C    0.317521   0.087455
     6  C    0.538104   0.051209
     7  O   -0.433122   0.240497
     8  O   -0.383990   0.250649
     9  C    0.181593  -0.002300
    10  C   -0.730670   0.002906
    11  C   -0.722435   0.003369
    12  C    0.681216  -0.025330
    13  C   -0.750654   0.010783
    14  C   -0.750542   0.010638
    15  C    0.179856  -0.002276
    16  C   -0.726836   0.003121
    17  C   -0.726735   0.003108
    18  C    0.683300  -0.025382
    19  C   -0.749355   0.010662
    20  C   -0.751893   0.010783
    21  H    0.205923  -0.002976
    22  H    0.148444   0.000047
    23  H    0.149563   0.000019
    24  H    0.151976  -0.000006
    25  H    0.149594  -0.000000
    26  H    0.148152   0.000149
    27  H    0.153400  -0.000091
    28  H    0.117836  -0.000996
    29  H    0.126486  -0.000008
    30  H    0.151428   0.000292
    31  H    0.169601  -0.000549
    32  H    0.170007  -0.000521
    33  H    0.151204   0.000293
    34  H    0.125453  -0.000044
    35  H    0.206044  -0.002997
    36  H    0.148249   0.000087
    37  H    0.152490  -0.000045
    38  H    0.149547   0.000014
    39  H    0.148294   0.000105
    40  H    0.149521   0.000005
    41  H    0.152650  -0.000045
    42  H    0.118056  -0.000991
    43  H    0.151420   0.000250
    44  H    0.169490  -0.000477
    45  H    0.125754  -0.000012
    46  H    0.151233   0.000316
    47  H    0.125763  -0.000038
    48  H    0.170037  -0.000575
 Sum of Mulliken charges =  -1.00000   1.00000

 Dipole moment (field-independent basis, Debye):
    X=              2.4802    Y=             -2.9761    Z=              0.1253  Tot=              3.8761
 Quadrupole moment (field-independent basis, Debye-Ang):
   XX=           -135.5677   YY=           -171.7114   ZZ=           -135.0005
   XY=              2.8051   XZ=             -0.1294   YZ=              1.9857

  Exact polarizability: 346.820  -1.889 401.441   1.203  -7.339 258.646
 Approx polarizability: 343.249  -3.923 454.482   1.063  -9.372 273.281

                      1                      2                      3
                      A                      A                      A
 Frequencies --     32.6017                35.3439                64.8025
 Red. masses --      3.5006                 3.2769                 4.2456
 Frc consts  --      0.0022                 0.0024                 0.0105
 IR Inten    --      6.8399                 1.7595                 3.7192

                      4                      5                      6
                      A                      A                      A
 Frequencies --     71.0967                83.0772                97.5014
 Red. masses --      2.5438                 3.0811                 3.1223
 Frc consts  --      0.0076                 0.0125                 0.0175
 IR Inten    --      0.0082                 1.6436                 4.7344

                      7                      8                      9
                      A                      A                      A
 Frequencies --    110.0982               152.4998               165.0400
 Red. masses --      2.6244                 2.7939                 1.8658
 Frc consts  --      0.0187                 0.0383                 0.0299
 IR Inten    --      0.0675                 6.3433                 1.8311

                     10                     11                     12
                      A                      A                      A
 Frequencies --    168.4829               183.9135               184.7897
 Red. masses --      2.0059                 2.1869                 2.4254
 Frc consts  --      0.0335                 0.0436                 0.0488
 IR Inten    --      1.0795                 1.5787                 0.8132

                     13                     14                     15
                      A                      A                      A
 Frequencies --    199.2078               203.2816               205.1331
 Red. masses --      1.1074                 1.1103                 1.2686
 Frc consts  --      0.0259                 0.0270                 0.0315
 IR Inten    --      0.3716                 0.0829                 0.4359

                     16                     17                     18
                      A                      A                      A
 Frequencies --    206.4141               210.6965               216.6208
 Red. masses --      1.1616                 1.3172                 1.2705
 Frc consts  --      0.0292                 0.0345                 0.0351
 IR Inten    --      1.0751                 0.4693                 0.3704

                     19                     20                     21
                      A                      A                      A
 Frequencies --    221.9276               225.5296               233.0937
 Red. masses --      1.1816                 1.3830                 2.1552
 Frc consts  --      0.0343                 0.0414                 0.0690
 IR Inten    --      1.3081                 1.8806                 0.0859

                     22                     23                     24
                      A                      A                      A
 Frequencies --    246.0404               264.3017               267.0982
 Red. masses --      2.2971                 3.4906                 3.1364
 Frc consts  --      0.0819                 0.1437                 0.1318
 IR Inten    --      0.0010                 0.9328                 0.0015

                     25                     26                     27
                      A                      A                      A
 Frequencies --    293.1781               295.1551               321.9932
 Red. masses --      2.6818                 3.8108                 2.9735
 Frc consts  --      0.1358                 0.1956                 0.1816
 IR Inten    --      6.1684                 2.4392                 5.0266

                     28                     29                     30
                      A                      A                      A
 Frequencies --    391.6031               418.6766               430.7118
 Red. masses --      4.5461                 2.5101                 5.4165
 Frc consts  --      0.4108                 0.2592                 0.5920
 IR Inten    --      0.6870                 1.2120                35.6285

                     31                     32                     33
                      A                      A                      A
 Frequencies --    438.5479               448.1902               457.9168
 Red. masses --      2.9044                 2.6078                 3.3857
 Frc consts  --      0.3291                 0.3086                 0.4183
 IR Inten    --      2.1798                 2.2554                18.1818

                     34                     35                     36
                      A                      A                      A
 Frequencies --    495.6152               508.2054               518.2699
 Red. masses --      5.6325                 6.6957                 5.1700
 Frc consts  --      0.8152                 1.0189                 0.8182
 IR Inten    --      1.0967                 0.0413                 0.0171

                     37                     38                     39
                      A                      A                      A
 Frequencies --    527.0259               554.9605               593.9134
 Red. masses --      2.9231                 3.1032                 2.9741
 Frc consts  --      0.4784                 0.5631                 0.6181
 IR Inten    --      0.4772                 0.9555                22.3516

                     40                     41                     42
                      A                      A                      A
 Frequencies --    687.9294               720.6996               754.0201
 Red. masses --      6.7997                 6.0377                 9.0312
 Frc consts  --      1.8959                 1.8477                 3.0252
 IR Inten    --      0.0008                 5.4760                22.2959

                     43                     44                     45
                      A                      A                      A
 Frequencies --    794.7167               823.6668               829.3847
 Red. masses --      2.7964                 8.9227                 3.2207
 Frc consts  --      1.0406                 3.5666                 1.3053
 IR Inten    --     29.8734                 0.0660                 1.0865

                     46                     47                     48
                      A                      A                      A
 Frequencies --    855.6428               868.4141               916.5680
 Red. masses --      3.1285                 2.8424                 2.2742
 Frc consts  --      1.3495                 1.2630                 1.1257
 IR Inten    --      4.9239                25.5875                 9.1165

                     49                     50                     51
                      A                      A                      A
 Frequencies --    918.0283               918.7927               930.7110
 Red. masses --      1.1799                 1.1643                 1.2286
 Frc consts  --      0.5859                 0.5791                 0.6270
 IR Inten    --      2.3823                 4.8713                 0.0099

                     52                     53                     54
                      A                      A                      A
 Frequencies --    931.2607               942.0698               958.1096
 Red. masses --      1.2320                 2.5390                 1.5092
 Frc consts  --      0.6295                 1.3277                 0.8163
 IR Inten    --      0.0263                50.5284                 0.0356

                     55                     56                     57
                      A                      A                      A
 Frequencies --    958.2936               962.6646               963.0205
 Red. masses --      1.5005                 1.4316                 1.4378
 Frc consts  --      0.8118                 0.7817                 0.7857
 IR Inten    --      0.0802                 0.0002                 0.0159

                     58                     59                     60
                      A                      A                      A
 Frequencies --    965.9299              1019.4833              1088.4623
 Red. masses --      2.3731                 2.1765                 2.1018
 Frc consts  --      1.3045                 1.3328                 1.4671
 IR Inten    --      0.8677                59.9790               108.2912

                     61                     62                     63
                      A                      A                      A
 Frequencies --   1098.8246              1116.3413              1117.5107
 Red. masses --      1.9239                 2.6544                 2.6805
 Frc consts  --      1.3686                 1.9490                 1.9723
 IR Inten    --      4.2007                 0.0929                26.5011

                     64                     65                     66
                      A                      A                      A
 Frequencies --   1119.8953              1121.0096              1125.5245
 Red. masses --      2.5648                 2.5682                 1.7850
 Frc consts  --      1.8952                 1.9015                 1.3323
 IR Inten    --      0.2281                 0.0147                67.6179

                     67                     68                     69
                      A                      A                      A
 Frequencies --   1126.6458              1169.0961              1185.7171
 Red. masses --      1.8659                 2.6551                 2.1175
 Frc consts  --      1.3955                 2.1381                 1.7540
 IR Inten    --     20.5497                 4.4297                 0.0366

                     70                     71                     72
                      A                      A                      A
 Frequencies --   1193.9133              1197.9179              1200.3001
 Red. masses --      2.1844                 2.1756                 2.8618
 Frc consts  --      1.8345                 1.8395                 2.4292
 IR Inten    --     20.7044                 1.3273                 2.9502

                     73                     74                     75
                      A                      A                      A
 Frequencies --   1269.7233              1345.7141              1353.4938
 Red. masses --      3.7318                 1.8493                 1.5204
 Frc consts  --      3.5448                 1.9731                 1.6410
 IR Inten    --     44.7173                 0.0829                72.1953

                     76                     77                     78
                      A                      A                      A
 Frequencies --   1355.6846              1355.8974              1358.6217
 Red. masses --      1.2623                 1.2616                 1.4388
 Frc consts  --      1.3669                 1.3665                 1.5647
 IR Inten    --      0.6463                 3.5464                 6.7580

                     79                     80                     81
                      A                      A                      A
 Frequencies --   1369.3793              1370.3107              1382.8606
 Red. masses --      1.2186                 1.2187                 1.3665
 Frc consts  --      1.3463                 1.3483                 1.5396
 IR Inten    --      8.5693                11.0090                 3.8022

                     82                     83                     84
                      A                      A                      A
 Frequencies --   1384.1353              1384.4317              1385.9397
 Red. masses --      1.2502                 1.2908                 1.2712
 Frc consts  --      1.4112                 1.4577                 1.4387
 IR Inten    --     28.5326                86.7318                18.3559

                     85                     86                     87
                      A                      A                      A
 Frequencies --   1386.8190              1396.3800              1396.4845
 Red. masses --      1.2239                 1.1943                 1.1945
 Frc consts  --      1.3869                 1.3721                 1.3724
 IR Inten    --      0.5210                 5.7523                 9.5832

                     88                     89                     90
                      A                      A                      A
 Frequencies --   1404.3368              1411.2683              1439.8379
 Red. masses --      1.3231                 1.2429                 2.5790
 Frc consts  --      1.5374                 1.4585                 3.1502
 IR Inten    --      2.8791                17.5858                 0.2180

                     91                     92                     93
                      A                      A                      A
 Frequencies --   1455.7177              1466.3205              1471.2319
 Red. masses --      4.8886                 2.4713                 1.0457
 Frc consts  --      6.1037                 3.1307                 1.3336
 IR Inten    --    931.7479               108.7806                 1.5858

                     94                     95                     96
                      A                      A                      A
 Frequencies --   1471.6928              1480.7324              1480.8490
 Red. masses --      1.0430                 1.0430                 1.0430
 Frc consts  --      1.3310                 1.3474                 1.3476
 IR Inten    --      0.7696                 0.0017                 0.0214

                     97                     98                     99
                      A                      A                      A
 Frequencies --   1482.0879              1488.5077              1489.0342
 Red. masses --      1.0507                 1.0521                 1.0522
 Frc consts  --      1.3599                 1.3734                 1.3746
 IR Inten    --      4.4795                 2.8655                 3.0062

                    100                    101                    102
                      A                      A                      A
 Frequencies --   1491.6227              1491.9801              1492.1631
 Red. masses --      1.0606                 1.0602                 1.4597
 Frc consts  --      1.3903                 1.3905                 1.9149
 IR Inten    --      1.8182                 7.1536                57.2929

                    103                    104                    105
                      A                      A                      A
 Frequencies --   1494.7024              1496.7193              1498.8512
 Red. masses --      1.0518                 1.0511                 1.0958
 Frc consts  --      1.3845                 1.3874                 1.4504
 IR Inten    --      2.3301                 2.7031                31.1206

                    106                    107                    108
                      A                      A                      A
 Frequencies --   1499.6990              1503.4833              1507.5764
 Red. masses --      1.0739                 1.2912                 1.1133
 Frc consts  --      1.4231                 1.7196                 1.4908
 IR Inten    --      4.0165                26.3673                11.9034

                    109                    110                    111
                      A                      A                      A
 Frequencies --   1514.9029              1607.1510              3008.3876
 Red. masses --      2.5538                 7.4089                 1.0396
 Frc consts  --      3.4530                11.2750                 5.5437
 IR Inten    --     30.5530                 0.8093                55.1622

                    112                    113                    114
                      A                      A                      A
 Frequencies --   3008.6504              3010.5708              3010.5981
 Red. masses --      1.0398                 1.0379                 1.0379
 Frc consts  --      5.5453                 5.5423                 5.5424
 IR Inten    --     78.8232                12.5797               132.4992

                    115                    116                    117
                      A                      A                      A
 Frequencies --   3012.9541              3013.4029              3015.0106
 Red. masses --      1.0405                 1.0404                 1.0385
 Frc consts  --      5.5649                 5.5662                 5.5620
 IR Inten    --    149.5550               114.5070               172.4376

                    118                    119                    120
                      A                      A                      A
 Frequencies --   3015.7442              3059.6697              3060.3564
 Red. masses --      1.0385                 1.0883                 1.0887
 Frc consts  --      5.5650                 6.0027                 6.0077
 IR Inten    --     17.9202                15.8928                60.6939

                    121                    122                    123
                      A                      A                      A
 Frequencies --   3062.8812              3062.9473              3064.5807
 Red. masses --      1.0999                 1.0999                 1.0989
 Frc consts  --      6.0792                 6.0795                 6.0804
 IR Inten    --      3.1318                72.8520                89.4939

                    124                    125                    126
                      A                      A                      A
 Frequencies --   3064.6985              3066.2663              3066.3447
 Red. masses --      1.0989                 1.0993                 1.0993
 Frc consts  --      6.0809                 6.0897                 6.0901
 IR Inten    --    103.7428                 8.5396                91.7695

                    127                    128                    129
                      A                      A                      A
 Frequencies --   3069.6356              3070.0288              3087.8575
 Red. masses --      1.0979                 1.0977                 1.0999
 Frc consts  --      6.0951                 6.0955                 6.1788
 IR Inten    --    206.2805                34.2942                 3.3041

                    130                    131                    132
                      A                      A                      A
 Frequencies --   3087.9394              3095.4264              3095.8561
 Red. masses --      1.0998                 1.0935                 1.0933
 Frc consts  --      6.1788                 6.1733                 6.1735
 IR Inten    --      5.8671                 4.8700               130.0016

                    133                    134                    135
                      A                      A                      A
 Frequencies --   3107.4981              3108.1708              3115.2702
 Red. masses --      1.0910                 1.0903                 1.0977
 Frc consts  --      6.2073                 6.2062                 6.2764
 IR Inten    --     20.0136                55.7342                 0.1512

                    136                    137                    138
                      A                      A                      A
 Frequencies --   3116.0839              3134.2573              3134.6380
 Red. masses --      1.0976                 1.0882                 1.0884
 Frc consts  --      6.2792                 6.2985                 6.3010
 IR Inten    --      0.1027               108.4099                19.1144

 - Thermochemistry -
 -------------------
 Temperature   298.150 Kelvin.  Pressure   1.00000 Atm.
 Atom     1 has atomic number  6 and mass  12.00000

 Molecular mass:   276.20893 amu.
 Principal axes and moments of inertia in atomic units:
                           1         2         3
     Eigenvalues --  4069.711026438.984428916.78979
           X            0.99929  -0.03582  -0.01202
           Y            0.03637   0.99813   0.04913
           Z            0.01024  -0.04953   0.99872
 This molecule is an asymmetric top.
 Rotational symmetry number  1.
 Warning -- assumption of classical behavior for rotation
           may cause significant error
 Rotational temperatures (Kelvin)      0.02128     0.01345     0.00971
 Rotational constants (GHZ):           0.44346     0.28028     0.20240
 Zero-point vibrational energy    1099279.6 (Joules/Mol)
                                  262.73412 (Kcal/Mol)
 Warning -- explicit consideration of  39 degrees of freedom as
           vibrations may cause significant error
 Vibrational temperatures:     46.91    50.85    93.24   102.29   119.53
          (Kelvin)            140.28   158.41   219.41   237.46   242.41
                              264.61   265.87   286.62   292.48   295.14
                              296.98   303.15   311.67   319.30   324.49
                              335.37   354.00   380.27   384.29   421.82
                              424.66   463.28   563.43   602.38   619.70
                              630.97   644.85   658.84   713.08   731.19
                              745.67   758.27   798.46   854.51   989.78
                             1036.93  1084.87  1143.42  1185.07  1193.30
                             1231.08  1249.45  1318.74  1320.84  1321.94
                             1339.09  1339.88  1355.43  1378.51  1378.77
                             1385.06  1385.57  1389.76  1466.81  1566.05
                             1580.96  1606.17  1607.85  1611.28  1612.88
                             1619.38  1620.99  1682.07  1705.98  1717.77
                             1723.54  1726.96  1826.85  1936.18  1947.38
                             1950.53  1950.83  1954.75  1970.23  1971.57
                             1989.63  1991.46  1991.89  1994.06  1995.32
                             2009.08  2009.23  2020.53  2030.50  2071.61
                             2094.45  2109.71  2116.77  2117.44  2130.44
                             2130.61  2132.39  2141.63  2142.39  2146.11
                             2146.63  2146.89  2150.54  2153.45  2156.51
                             2157.73  2163.18  2169.07  2179.61  2312.33
                             4328.40  4328.78  4331.54  4331.58  4334.97
                             4335.61  4337.93  4338.98  4402.18  4403.17
                             4406.80  4406.90  4409.25  4409.42  4411.67
                             4411.79  4416.52  4417.09  4442.74  4442.86
                             4453.63  4454.25  4471.00  4471.96  4482.18
                             4483.35  4509.50  4510.04

 Zero-point correction=                           0.418693 (Hartree/Particle)
 Thermal correction to Energy=                    0.442279
 Thermal correction to Enthalpy=                  0.443224
 Thermal correction to Gibbs Free Energy=         0.366858
 Sum of electronic and zero-point Energies=           -853.171139
 Sum of electronic and thermal Energies=              -853.147553
 Sum of electronic and thermal Enthalpies=            -853.146609
 Sum of electronic and thermal Free Energies=         -853.222975

                     E (Thermal)             CV                S
                      KCal/Mol        Cal/Mol-Kelvin    Cal/Mol-Kelvin
 Total                  277.534             88.652            160.725
 Electronic               0.000              0.000              1.377
 Translational            0.889              2.981             42.746
 Rotational               0.889              2.981             33.813
 Vibrational            275.757             82.690             82.789
 Vibration     1          0.594              1.983              5.664
 Vibration     2          0.594              1.982              5.504
 Vibration     3          0.597              1.971              4.305
 Vibration     4          0.598              1.968              4.123
 Vibration     5          0.600              1.961              3.817
 Vibration     6          0.603              1.951              3.504
 Vibration     7          0.606              1.941              3.267
 Vibration     8          0.619              1.900              2.641
 Vibration     9          0.623              1.885              2.491
 Vibration    10          0.625              1.881              2.452
 Vibration    11          0.631              1.862              2.288
 Vibration    12          0.631              1.861              2.279
 Vibration    13          0.637              1.841              2.140
 Vibration    14          0.639              1.835              2.103
 Vibration    15          0.640              1.833              2.087
 Vibration    16          0.641              1.831              2.075
 Vibration    17          0.643              1.825              2.038
 Vibration    18          0.645              1.816              1.987
 Vibration    19          0.648              1.808              1.943
 Vibration    20          0.650              1.802              1.914
 Vibration    21          0.654              1.790              1.855
 Vibration    22          0.661              1.769              1.759
 Vibration    23          0.671              1.738              1.633
 Vibration    24          0.672              1.734              1.615
 Vibration    25          0.688              1.686              1.456
 Vibration    26          0.689              1.683              1.444
 Vibration    27          0.707              1.631              1.300
 Vibration    28          0.759              1.488              0.994
 Vibration    29          0.782              1.430              0.896
 Vibration    30          0.792              1.403              0.856
 Vibration    31          0.799              1.386              0.831
 Vibration    32          0.807              1.365              0.801
 Vibration    33          0.816              1.343              0.772
 Vibration    34          0.851              1.260              0.669
 Vibration    35          0.863              1.232              0.638
 Vibration    36          0.873              1.210              0.614
 Vibration    37          0.882              1.190              0.594
 Vibration    38          0.910              1.129              0.534
 Vibration    39          0.952              1.045              0.460

                           ! Non-Optimized Parameters !
 Normal termination of Gaussian 16 at Sat Feb 10 23:00:42 2024.
