 Gaussian 16, Revision A.03,
 Gaussian 16:  ES64L-G16RevA.03 25-Dec-2016

 ----------------------------------------------------------------
 #P UB3LYP/6-311++G(d,p) SCRF=(PCM,Solvent=n,n-DiMethylFormamide)
 ----------------------------------------------------------------

 -------
 Reduced
 -------
 Symbolic Z-matrix:
 Charge = -2 Multiplicity = 1

                         Standard orientation:
 ---------------------------------------------------------------------
 Center     Atomic      Atomic             Coordinates (Angstroms)
 Number     Number       Type             X           Y           Z
 ---------------------------------------------------------------------
      1          6           0       -1.391635   -1.380247    0.000910
      2          6           0       -2.606635   -0.714475    0.006613
      3          6           0       -2.606665    0.714453   -0.006696
      4          6           0       -0.144430   -0.716320   -0.001412
      5          6           0       -0.144448    0.716422    0.001019
      6          6           0       -1.391685    1.380296   -0.001244
      7          6           0        1.093994   -1.488599    0.001223
      8          6           0        2.295190   -0.706621   -0.001332
      9          6           0        2.295185    0.706629    0.001298
     10          6           0        1.094005    1.488641   -0.001511
     11          8           0        1.088713   -2.777420    0.012393
     12          8           0        1.088799    2.777468   -0.012716
     13          6           0        3.600019   -1.468343    0.007550
     14          6           0        3.600067    1.468230   -0.007041
     15          1           0       -1.359595   -2.466079   -0.008286
     16          6           0       -3.909355   -1.483801   -0.025962
     17          6           0       -3.909404    1.483759    0.026414
     18          1           0        3.374171   -2.537168    0.002873
     19          1           0        4.212665   -1.242720    0.895323
     20          1           0        4.228795   -1.235797   -0.866019
     21          1           0        4.228268    1.235962    0.867035
     22          1           0        3.374402    2.537103   -0.002855
     23          1           0        4.213280    1.242257   -0.894328
     24          1           0       -1.359756    2.466130    0.007963
     25          1           0       -3.726680   -2.560051    0.045010
     26          1           0       -4.481109   -1.307917   -0.954728
     27          1           0       -4.580921   -1.207047    0.793556
     28          1           0       -4.581631    1.206469   -0.792373
     29          1           0       -3.726835    2.559973   -0.045326
     30          1           0       -4.480360    1.308372    0.955767
 ---------------------------------------------------------------------

 SCF Done:  E(UB3LYP) =  -692.805772720     A.U. after   17 cycles

 The electronic state is 1-A.
 Alpha  occ. eigenvalues --  -19.00523 -19.00523 -10.15618 -10.15616 -10.15141
 Alpha  occ. eigenvalues --  -10.15140 -10.14946 -10.14904 -10.13413 -10.13411
 Alpha  occ. eigenvalues --  -10.12943 -10.12942 -10.12416 -10.12374 -10.11508
 Alpha  occ. eigenvalues --  -10.11461  -0.92451  -0.92109  -0.82594  -0.77349
 Alpha  occ. eigenvalues --   -0.74265  -0.73611  -0.68946  -0.67559  -0.67000
 Alpha  occ. eigenvalues --   -0.61930  -0.59941  -0.56096  -0.53306  -0.50511
 Alpha  occ. eigenvalues --   -0.46394  -0.43961  -0.43874  -0.41488  -0.40485
 Alpha  occ. eigenvalues --   -0.39953  -0.39507  -0.38497  -0.38303  -0.36822
 Alpha  occ. eigenvalues --   -0.36656  -0.35595  -0.35559  -0.35423  -0.34802
 Alpha  occ. eigenvalues --   -0.34140  -0.33758  -0.31619  -0.30435  -0.29629
 Alpha  occ. eigenvalues --   -0.28999  -0.28963  -0.21674  -0.20903  -0.19046
 Alpha  occ. eigenvalues --   -0.19038  -0.18055  -0.09782
 Alpha virt. eigenvalues --   -0.00265   0.00341   0.00389   0.01409   0.02294
 Alpha virt. eigenvalues --    0.02492   0.02570   0.03446   0.03988   0.04297
 Alpha virt. eigenvalues --    0.04572   0.04976   0.05698   0.06035   0.06780

  Beta  occ. eigenvalues --  -19.00523 -19.00523 -10.15618 -10.15616 -10.15141
  Beta  occ. eigenvalues --  -10.15140 -10.14946 -10.14904 -10.13413 -10.13411
  Beta  occ. eigenvalues --  -10.12943 -10.12942 -10.12416 -10.12374 -10.11508
  Beta  occ. eigenvalues --  -10.11461  -0.92451  -0.92109  -0.82594  -0.77349
  Beta  occ. eigenvalues --   -0.74265  -0.73611  -0.68946  -0.67559  -0.67000
  Beta  occ. eigenvalues --   -0.61930  -0.59941  -0.56096  -0.53306  -0.50511
  Beta  occ. eigenvalues --   -0.46394  -0.43961  -0.43874  -0.41488  -0.40485
  Beta  occ. eigenvalues --   -0.39953  -0.39507  -0.38497  -0.38303  -0.36822
  Beta  occ. eigenvalues --   -0.36656  -0.35595  -0.35559  -0.35423  -0.34802
  Beta  occ. eigenvalues --   -0.34140  -0.33758  -0.31619  -0.30435  -0.29629
  Beta  occ. eigenvalues --   -0.28999  -0.28963  -0.21674  -0.20903  -0.19046
  Beta  occ. eigenvalues --   -0.19038  -0.18055  -0.09782
  Beta virt. eigenvalues --   -0.00265   0.00341   0.00389   0.01409   0.02294
  Beta virt. eigenvalues --    0.02492   0.02570   0.03446   0.03988   0.04297
  Beta virt. eigenvalues --    0.04572   0.04976   0.05698   0.06035   0.06780

 Mulliken charges and spin densities:
               1          2
     1  C   -0.207530   0.000000
     2  C    0.316396  -0.000000
     3  C    0.316944  -0.000000
     4  C    0.128093   0.000000
     5  C    0.128438   0.000000
     6  C   -0.207565   0.000000
     7  C   -0.801887  -0.000000
     8  C    0.307576  -0.000000
     9  C    0.307166  -0.000000
    10  C   -0.801760   0.000000
    11  O   -0.693816   0.000000
    12  O   -0.693843   0.000000
    13  C   -0.486515   0.000000
    14  C   -0.486609   0.000000
    15  H    0.105853  -0.000000
    16  C   -0.534266  -0.000000
    17  C   -0.534412   0.000000
    18  H    0.170083  -0.000000
    19  H    0.122231   0.000000
    20  H    0.121223  -0.000000
    21  H    0.121247  -0.000000
    22  H    0.170084   0.000000
    23  H    0.122214  -0.000000
    24  H    0.105854  -0.000000
    25  H    0.160618  -0.000000
    26  H    0.150458   0.000000
    27  H    0.141331   0.000000
    28  H    0.141285   0.000000
    29  H    0.160605  -0.000000
    30  H    0.150507  -0.000000
 Sum of Mulliken charges =  -2.00000  -0.00000

 Dipole moment (field-independent basis, Debye):
    X=             -8.8132    Y=             -0.0005    Z=              0.0021  Tot=              8.8132
 Quadrupole moment (field-independent basis, Debye-Ang):
   XX=           -123.8155   YY=           -165.4672   ZZ=           -107.0341
   XY=             -0.0011   XZ=             -0.0001   YZ=              0.3758

 Normal termination of Gaussian 16 at Sun Jan 21 08:54:05 2024.
