 Gaussian 16, Revision A.03,
 Gaussian 16:  ES64L-G16RevA.03 25-Dec-2016

 ----------------------------------------------------------------
 #P UB3LYP/6-311++G(d,p) SCRF=(PCM,Solvent=n,n-DiMethylFormamide)
 ----------------------------------------------------------------

 ------------------
 Quinone PCM in DMF
 ------------------
 Symbolic Z-matrix:
 Charge =  0 Multiplicity = 1

                         Standard orientation:
 ---------------------------------------------------------------------
 Center     Atomic      Atomic             Coordinates (Angstroms)
 Number     Number       Type             X           Y           Z
 ---------------------------------------------------------------------
      1          6           0        0.236090    1.479907   -0.119756
      2          6           0       -1.152946    1.996479   -0.095078
      3          6           0       -2.196710    1.167500    0.000498
      4          6           0       -2.004034   -0.298716    0.081777
      5          6           0       -0.605010   -0.850205    0.026776
      6          6           0        0.442380    0.003711   -0.053218
      7          8           0        1.177072    2.253976   -0.211562
      8          8           0       -2.963526   -1.043258    0.188598
      9          6           0        1.877254   -0.493319   -0.124771
     10          6           0        2.821045   -0.059940    0.969292
     11          8           0        2.211739   -1.230577   -1.025693
     12          1           0       -1.255739    3.073881   -0.161441
     13          1           0       -3.224746    1.511380    0.023824
     14          1           0        2.389468   -0.278001    1.951684
     15          1           0        2.970760    1.020714    0.911650
     16          1           0        3.772755   -0.577763    0.854536
     17          6           0       -0.507181   -2.344886    0.077416
     18          1           0       -0.917594   -2.771832   -0.842979
     19          1           0       -1.120673   -2.731924    0.893993
     20          1           0        0.518158   -2.690776    0.180361
 ---------------------------------------------------------------------

 SCF Done:  E(UB3LYP) =  -573.586268285     A.U. after   15 cycles

 The electronic state is 1-A.
 Alpha  occ. eigenvalues --  -19.15067 -19.14939 -19.14128 -10.29736 -10.29435
 Alpha  occ. eigenvalues --  -10.29147 -10.23493 -10.22297 -10.21805 -10.21710
 Alpha  occ. eigenvalues --  -10.18201 -10.17935  -1.08327  -1.08099  -1.07499
 Alpha  occ. eigenvalues --   -0.87669  -0.82054  -0.77065  -0.73435  -0.70068
 Alpha  occ. eigenvalues --   -0.65275  -0.60702  -0.56395  -0.54100  -0.51069
 Alpha  occ. eigenvalues --   -0.49623  -0.47526  -0.47480  -0.45912  -0.45515
 Alpha  occ. eigenvalues --   -0.44626  -0.44154  -0.43527  -0.41459  -0.41263
 Alpha  occ. eigenvalues --   -0.40751  -0.39943  -0.37898  -0.31894  -0.30383
 Alpha  occ. eigenvalues --   -0.30042  -0.29545  -0.27165
 Alpha virt. eigenvalues --   -0.14299  -0.06151  -0.02665  -0.00676  -0.00610
 Alpha virt. eigenvalues --    0.00733   0.00994   0.02537   0.02924   0.03355
 Alpha virt. eigenvalues --    0.04229   0.04817   0.05556   0.06413   0.06673

  Beta  occ. eigenvalues --  -19.15067 -19.14939 -19.14128 -10.29736 -10.29435
  Beta  occ. eigenvalues --  -10.29147 -10.23493 -10.22297 -10.21805 -10.21710
  Beta  occ. eigenvalues --  -10.18201 -10.17935  -1.08327  -1.08099  -1.07499
  Beta  occ. eigenvalues --   -0.87669  -0.82054  -0.77065  -0.73435  -0.70068
  Beta  occ. eigenvalues --   -0.65275  -0.60702  -0.56395  -0.54100  -0.51069
  Beta  occ. eigenvalues --   -0.49623  -0.47526  -0.47480  -0.45912  -0.45515
  Beta  occ. eigenvalues --   -0.44626  -0.44154  -0.43527  -0.41459  -0.41263
  Beta  occ. eigenvalues --   -0.40751  -0.39943  -0.37898  -0.31894  -0.30383
  Beta  occ. eigenvalues --   -0.30042  -0.29545  -0.27165
  Beta virt. eigenvalues --   -0.14299  -0.06151  -0.02665  -0.00676  -0.00610
  Beta virt. eigenvalues --    0.00733   0.00994   0.02537   0.02924   0.03355
  Beta virt. eigenvalues --    0.04229   0.04817   0.05556   0.06413   0.06673

 Mulliken charges and spin densities:
               1          2
     1  C   -0.552054   0.000000
     2  C   -0.034760  -0.000000
     3  C    0.152395   0.000000
     4  C   -0.520013  -0.000000
     5  C    0.228839   0.000000
     6  C    1.096214  -0.000000
     7  O   -0.275815  -0.000000
     8  O   -0.263112  -0.000000
     9  C   -0.081094  -0.000000
    10  C   -0.619528   0.000000
    11  O   -0.283177   0.000000
    12  H    0.248029  -0.000000
    13  H    0.246244  -0.000000
    14  H    0.168809   0.000000
    15  H    0.211946   0.000000
    16  H    0.182447  -0.000000
    17  C   -0.472645   0.000000
    18  H    0.209831  -0.000000
    19  H    0.184347  -0.000000
    20  H    0.173097   0.000000
 Sum of Mulliken charges =  -0.00000   0.00000

 Dipole moment (field-independent basis, Debye):
    X=             -1.2399    Y=              1.2357    Z=              2.7831  Tot=              3.2879
 Quadrupole moment (field-independent basis, Debye-Ang):
   XX=            -78.7531   YY=            -71.6249   ZZ=            -70.4042
   XY=             -8.3561   XZ=              8.1994   YZ=             -2.2338

 Normal termination of Gaussian 16 at Sun Jan 21 07:02:47 2024.
