 Gaussian 16, Revision A.03,
 Gaussian 16:  ES64L-G16RevA.03 25-Dec-2016

 ----------------------------------------------------------------
 #P UB3LYP/6-311++G(d,p) SCRF=(PCM,Solvent=n,n-DiMethylFormamide)
 ----------------------------------------------------------------

 ------------------
 Quinone PCM in DMF
 ------------------
 Symbolic Z-matrix:
 Charge =  0 Multiplicity = 1

                         Standard orientation:
 ---------------------------------------------------------------------
 Center     Atomic      Atomic             Coordinates (Angstroms)
 Number     Number       Type             X           Y           Z
 ---------------------------------------------------------------------
      1          6           0       -0.063976   -1.393998   -0.000360
      2          6           0       -1.271556   -0.701824   -0.000152
      3          6           0       -1.271507    0.701794   -0.000238
      4          6           0        1.143713   -0.699517   -0.000506
      5          6           0        1.143818    0.699602   -0.000542
      6          6           0       -0.063962    1.393967   -0.000437
      7          6           0        2.428533   -1.455624   -0.000639
      8          6           0        3.704826   -0.678557   -0.000090
      9          6           0        3.704807    0.678662    0.000550
     10          6           0        2.428727    1.455744   -0.000477
     11          8           0        2.434600   -2.676222   -0.001202
     12          8           0        2.434724    2.676398   -0.001084
     13          1           0       -0.048020   -2.475854   -0.000322
     14          1           0       -0.047901    2.475820   -0.000467
     15         35           0       -2.882333   -1.717382    0.000307
     16         35           0       -2.882202    1.717428    0.000158
     17          6           0        4.977716   -1.477504    0.000626
     18          6           0        4.978092    1.477075    0.001495
     19          1           0        4.760124   -2.543549   -0.014799
     20          1           0        5.577410   -1.254301    0.888906
     21          1           0        5.594195   -1.230481   -0.869385
     22          1           0        5.594067    1.228293    0.871315
     23          1           0        4.761014    2.543214    0.018374
     24          1           0        5.577860    1.254953   -0.886994
 ---------------------------------------------------------------------

 SCF Done:  E(UB3LYP) =  -5761.00291466     A.U. after   15 cycles

 The electronic state is 1-A.
 Alpha  occ. eigenvalues -- -482.85176-482.85175 -62.50452 -62.50452 -56.32499
 Alpha  occ. eigenvalues --  -56.32499 -56.32104 -56.32104 -56.32074 -56.32074
 Alpha  occ. eigenvalues --  -19.14037 -19.14036 -10.28931 -10.28929 -10.26887
 Alpha  occ. eigenvalues --  -10.26837 -10.22078 -10.22026 -10.21844 -10.21777
 Alpha  occ. eigenvalues --  -10.21776 -10.21773 -10.17575 -10.17574  -8.71423
 Alpha  occ. eigenvalues --   -8.71423  -6.54597  -6.54597  -6.53280  -6.53279
 Alpha  occ. eigenvalues --   -6.53200  -6.53199  -2.65686  -2.65685  -2.65320
 Alpha  occ. eigenvalues --   -2.65319  -2.65261  -2.65261  -2.64212  -2.64212
 Alpha  occ. eigenvalues --   -2.64212  -2.64211  -1.07493  -1.07308  -0.92151
 Alpha  occ. eigenvalues --   -0.86827  -0.83806  -0.83397  -0.77737  -0.76728
 Alpha  occ. eigenvalues --   -0.75308  -0.70251  -0.68180  -0.64781  -0.61535
 Alpha  occ. eigenvalues --   -0.59481  -0.55562  -0.51792  -0.51709  -0.48386
 Alpha  occ. eigenvalues --   -0.47166  -0.47096  -0.46486  -0.46399  -0.43716
 Alpha  occ. eigenvalues --   -0.43112  -0.42447  -0.41808  -0.41029  -0.40663
 Alpha  occ. eigenvalues --   -0.40349  -0.39851  -0.38419  -0.37960  -0.33985
 Alpha  occ. eigenvalues --   -0.33984  -0.32742  -0.29950  -0.29740  -0.28847
 Alpha  occ. eigenvalues --   -0.28115  -0.27992  -0.26796
 Alpha virt. eigenvalues --   -0.13066  -0.07095  -0.05006  -0.04454  -0.00985
 Alpha virt. eigenvalues --   -0.00487   0.00106   0.01096   0.01616   0.02422
 Alpha virt. eigenvalues --    0.02791   0.03131   0.03232   0.03964   0.04204

  Beta  occ. eigenvalues -- -482.85176-482.85175 -62.50452 -62.50452 -56.32499
  Beta  occ. eigenvalues --  -56.32499 -56.32104 -56.32104 -56.32074 -56.32074
  Beta  occ. eigenvalues --  -19.14037 -19.14036 -10.28931 -10.28929 -10.26887
  Beta  occ. eigenvalues --  -10.26837 -10.22078 -10.22026 -10.21844 -10.21777
  Beta  occ. eigenvalues --  -10.21776 -10.21773 -10.17575 -10.17574  -8.71423
  Beta  occ. eigenvalues --   -8.71423  -6.54597  -6.54597  -6.53280  -6.53279
  Beta  occ. eigenvalues --   -6.53200  -6.53199  -2.65686  -2.65685  -2.65320
  Beta  occ. eigenvalues --   -2.65319  -2.65261  -2.65261  -2.64212  -2.64212
  Beta  occ. eigenvalues --   -2.64212  -2.64211  -1.07493  -1.07308  -0.92151
  Beta  occ. eigenvalues --   -0.86827  -0.83806  -0.83397  -0.77737  -0.76728
  Beta  occ. eigenvalues --   -0.75308  -0.70251  -0.68180  -0.64781  -0.61535
  Beta  occ. eigenvalues --   -0.59481  -0.55562  -0.51792  -0.51709  -0.48386
  Beta  occ. eigenvalues --   -0.47166  -0.47096  -0.46486  -0.46399  -0.43716
  Beta  occ. eigenvalues --   -0.43112  -0.42447  -0.41808  -0.41029  -0.40663
  Beta  occ. eigenvalues --   -0.40349  -0.39851  -0.38419  -0.37960  -0.33985
  Beta  occ. eigenvalues --   -0.33984  -0.32742  -0.29950  -0.29740  -0.28847
  Beta  occ. eigenvalues --   -0.28115  -0.27992  -0.26796
  Beta virt. eigenvalues --   -0.13066  -0.07095  -0.05006  -0.04454  -0.00985
  Beta virt. eigenvalues --   -0.00487   0.00106   0.01096   0.01616   0.02422
  Beta virt. eigenvalues --    0.02791   0.03131   0.03232   0.03964   0.04204

 Mulliken charges and spin densities:
               1          2
     1  C   -0.148866   0.000000
     2  C    0.085838   0.000000
     3  C    0.085518  -0.000000
     4  C    0.502343  -0.000000
     5  C    0.503480  -0.000000
     6  C   -0.148475   0.000000
     7  C   -1.377153  -0.000000
     8  C    1.013810   0.000000
     9  C    1.013171   0.000000
    10  C   -1.376211   0.000000
    11  O   -0.257188   0.000000
    12  O   -0.257291   0.000000
    13  H    0.238688  -0.000000
    14  H    0.238668  -0.000000
    15  Br  -0.110772   0.000000
    16  Br  -0.110787   0.000000
    17  C   -0.500657  -0.000000
    18  C   -0.501206   0.000000
    19  H    0.198113  -0.000000
    20  H    0.179184   0.000000
    21  H    0.176292   0.000000
    22  H    0.176078   0.000000
    23  H    0.198066  -0.000000
    24  H    0.179356   0.000000
 Sum of Mulliken charges =  -0.00000   0.00000

 Dipole moment (field-independent basis, Debye):
    X=              2.7400    Y=             -0.0018    Z=              0.0040  Tot=              2.7400
 Quadrupole moment (field-independent basis, Debye-Ang):
   XX=            -99.0015   YY=           -133.1565   ZZ=           -117.5291
   XY=             -0.0052   XZ=              0.0119   YZ=             -0.0074

 Normal termination of Gaussian 16 at Tue Jan 23 20:47:45 2024.
