 Gaussian 16, Revision A.03,
 Gaussian 16:  ES64L-G16RevA.03 25-Dec-2016

 --------------------------------------
 #P UB3LYP/6-311++G(d,p) nosym opt freq
 --------------------------------------

 --------
 Oxidized
 --------
 Symbolic Z-matrix:
 Charge =  0 Multiplicity = 1

 SCF Done:  E(UB3LYP) =  -5760.99439753     A.U. after   17 cycles
 SCF Done:  E(UB3LYP) =  -5760.99476080     A.U. after   12 cycles
 SCF Done:  E(UB3LYP) =  -5760.99477878     A.U. after   12 cycles
 SCF Done:  E(UB3LYP) =  -5760.99477522     A.U. after   12 cycles
 SCF Done:  E(UB3LYP) =  -5760.99477379     A.U. after   12 cycles
 SCF Done:  E(UB3LYP) =  -5760.99478141     A.U. after   11 cycles
 SCF Done:  E(UB3LYP) =  -5760.99478228     A.U. after   10 cycles
 SCF Done:  E(UB3LYP) =  -5760.99478366     A.U. after   10 cycles
 SCF Done:  E(UB3LYP) =  -5760.99478585     A.U. after   11 cycles
 SCF Done:  E(UB3LYP) =  -5760.99480524     A.U. after   13 cycles
 SCF Done:  E(UB3LYP) =  -5760.99497263     A.U. after   14 cycles
 SCF Done:  E(UB3LYP) =  -5760.98301961     A.U. after   15 cycles
 SCF Done:  E(UB3LYP) =  -5760.99502672     A.U. after   12 cycles
 SCF Done:  E(UB3LYP) =  -5760.99505085     A.U. after   12 cycles
 SCF Done:  E(UB3LYP) =  -5760.99505868     A.U. after   11 cycles
 SCF Done:  E(UB3LYP) =  -5760.99506178     A.U. after   11 cycles
 SCF Done:  E(UB3LYP) =  -5760.99506287     A.U. after   11 cycles
 SCF Done:  E(UB3LYP) =  -5760.99506370     A.U. after   11 cycles
 SCF Done:  E(UB3LYP) =  -5760.99506391     A.U. after   10 cycles
 Optimization completed.
    -- Stationary point found.
 Normal termination of Gaussian 16 at Tue Jan 23 04:08:02 2024.

 ----------------------------------------------------------------------
 #P Geom=AllCheck Guess=TCheck SCRF=Check GenChk UB3LYP/6-311++G(d,p) F
 req
 ----------------------------------------------------------------------

 Structure from the checkpoint file:  "235.chk"
 --------
 Oxidized
 --------
 Charge =  0 Multiplicity = 1

                          Input orientation:
 ---------------------------------------------------------------------
 Center     Atomic      Atomic             Coordinates (Angstroms)
 Number     Number       Type             X           Y           Z
 ---------------------------------------------------------------------
      1          6           0        5.858280   -5.229419    1.162473
      2          6           0        6.777448   -5.132014    0.121801
      3          6           0        6.598890   -4.164026   -0.878828
      4          6           0        4.762582   -4.370611    1.214556
      5          6           0        4.584524   -3.405740    0.217132
      6          6           0        5.503635   -3.306820   -0.825136
      7          6           0        3.787075   -4.487861    2.335760
      8          6           0        2.623271   -3.550980    2.359672
      9          6           0        2.450283   -2.615483    1.391703
     10          6           0        3.416453   -2.480264    0.260125
     11          8           0        3.937596   -5.327294    3.209025
     12          8           0        3.256490   -1.636235   -0.607089
     13          1           0        5.982579   -5.970459    1.940981
     14          1           0        5.352624   -2.555718   -1.589142
     15         35           0        8.250070   -6.339205    0.115846
     16         35           0        7.813078   -3.970466   -2.332834
     17          6           0        1.662710   -3.702078    3.505559
     18          6           0        1.286060   -1.665087    1.398822
     19          1           0        1.988116   -4.495577    4.175266
     20          1           0        0.657392   -3.939034    3.142680
     21          1           0        1.583900   -2.770302    4.074391
     22          1           0        0.337111   -2.210356    1.389696
     23          1           0        1.322453   -1.009172    0.531348
     24          1           0        1.290789   -1.050029    2.304445
 ---------------------------------------------------------------------

 SCF Done:  E(UB3LYP) =  -5760.99506391     A.U. after    1 cycles

 Alpha  occ. eigenvalues -- -482.85166-482.85166 -62.50443 -62.50443 -56.32492
 Alpha  occ. eigenvalues --  -56.32492 -56.32094 -56.32093 -56.32063 -56.32063
 Alpha  occ. eigenvalues --  -19.14042 -19.14041 -10.28998 -10.28996 -10.27113
 Alpha  occ. eigenvalues --  -10.27063 -10.22458 -10.22387 -10.22365 -10.22313
 Alpha  occ. eigenvalues --  -10.22042 -10.22041 -10.18596 -10.18595  -8.71414
 Alpha  occ. eigenvalues --   -8.71414  -6.54598  -6.54598  -6.53266  -6.53266
 Alpha  occ. eigenvalues --   -6.53185  -6.53185  -2.65685  -2.65684  -2.65315
 Alpha  occ. eigenvalues --   -2.65315  -2.65255  -2.65255  -2.64195  -2.64195
 Alpha  occ. eigenvalues --   -2.64195  -2.64194  -1.07464  -1.07266  -0.92405
 Alpha  occ. eigenvalues --   -0.87295  -0.84200  -0.83513  -0.77920  -0.77003
 Alpha  occ. eigenvalues --   -0.76104  -0.70902  -0.68505  -0.65176  -0.61984
 Alpha  occ. eigenvalues --   -0.59826  -0.55905  -0.52008  -0.51948  -0.48514
 Alpha  occ. eigenvalues --   -0.47752  -0.47337  -0.46647  -0.46207  -0.44400
 Alpha  occ. eigenvalues --   -0.43501  -0.43083  -0.42436  -0.41309  -0.41117
 Alpha  occ. eigenvalues --   -0.41056  -0.40371  -0.38806  -0.38580  -0.34081
 Alpha  occ. eigenvalues --   -0.34038  -0.32674  -0.29905  -0.29666  -0.29373
 Alpha  occ. eigenvalues --   -0.28286  -0.28020  -0.27047
 Alpha virt. eigenvalues --   -0.13275  -0.07398  -0.05196  -0.04909  -0.01816
 Alpha virt. eigenvalues --   -0.00709  -0.00194   0.01122   0.01162   0.02131
 Alpha virt. eigenvalues --    0.02176   0.02325   0.03253   0.03715   0.04153

  Beta  occ. eigenvalues -- -482.85166-482.85166 -62.50443 -62.50443 -56.32492
  Beta  occ. eigenvalues --  -56.32492 -56.32094 -56.32093 -56.32063 -56.32063
  Beta  occ. eigenvalues --  -19.14042 -19.14041 -10.28998 -10.28996 -10.27113
  Beta  occ. eigenvalues --  -10.27063 -10.22458 -10.22387 -10.22365 -10.22313
  Beta  occ. eigenvalues --  -10.22042 -10.22041 -10.18596 -10.18595  -8.71414
  Beta  occ. eigenvalues --   -8.71414  -6.54598  -6.54598  -6.53266  -6.53266
  Beta  occ. eigenvalues --   -6.53185  -6.53185  -2.65685  -2.65684  -2.65315
  Beta  occ. eigenvalues --   -2.65315  -2.65255  -2.65255  -2.64195  -2.64195
  Beta  occ. eigenvalues --   -2.64195  -2.64194  -1.07464  -1.07266  -0.92405
  Beta  occ. eigenvalues --   -0.87295  -0.84200  -0.83513  -0.77920  -0.77003
  Beta  occ. eigenvalues --   -0.76104  -0.70902  -0.68505  -0.65176  -0.61984
  Beta  occ. eigenvalues --   -0.59826  -0.55905  -0.52008  -0.51948  -0.48514
  Beta  occ. eigenvalues --   -0.47752  -0.47337  -0.46647  -0.46207  -0.44400
  Beta  occ. eigenvalues --   -0.43501  -0.43083  -0.42436  -0.41309  -0.41117
  Beta  occ. eigenvalues --   -0.41056  -0.40371  -0.38806  -0.38580  -0.34081
  Beta  occ. eigenvalues --   -0.34038  -0.32674  -0.29905  -0.29666  -0.29373
  Beta  occ. eigenvalues --   -0.28286  -0.28020  -0.27047
  Beta virt. eigenvalues --   -0.13275  -0.07398  -0.05196  -0.04909  -0.01816
  Beta virt. eigenvalues --   -0.00709  -0.00194   0.01122   0.01162   0.02131
  Beta virt. eigenvalues --    0.02176   0.02325   0.03253   0.03715   0.04153

 Mulliken charges and spin densities:
               1          2
     1  C   -0.196669   0.000000
     2  C    0.143032  -0.000000
     3  C    0.142567   0.000000
     4  C    0.509100   0.000000
     5  C    0.510350  -0.000000
     6  C   -0.196238  -0.000000
     7  C   -1.412962  -0.000000
     8  C    0.979270   0.000000
     9  C    0.978829  -0.000000
    10  C   -1.411986  -0.000000
    11  O   -0.203740   0.000000
    12  O   -0.203824  -0.000000
    13  H    0.241554  -0.000000
    14  H    0.241542   0.000000
    15  Br  -0.110887   0.000000
    16  Br  -0.110878   0.000000
    17  C   -0.484238   0.000000
    18  C   -0.484633   0.000000
    19  H    0.214357  -0.000000
    20  H    0.161617   0.000000
    21  H    0.158986   0.000000
    22  H    0.158763  -0.000000
    23  H    0.214308   0.000000
    24  H    0.161780  -0.000000
 Sum of Mulliken charges =  -0.00000   0.00000

 Dipole moment (field-independent basis, Debye):
    X=             -1.7416    Y=              0.6531    Z=              0.9442  Tot=              2.0859
 Quadrupole moment (field-independent basis, Debye-Ang):
   XX=           -126.6566   YY=           -127.6504   ZZ=           -120.4779
   XY=              8.0756   XZ=             -2.0621   YZ=              4.4539

  Exact polarizability: 222.294 -55.665 170.362 -55.622 -30.910 192.536
 Approx polarizability: 310.060 -76.231 299.953 -56.119 -92.219 330.011

                      1                      2                      3
                      A                      A                      A
 Frequencies --     14.9771                42.6384                42.9198
 Red. masses --      1.0437                 6.9707                 7.0179
 Frc consts  --      0.0001                 0.0075                 0.0076
 IR Inten    --      0.0021                 2.1317                 2.0044

                      4                      5                      6
                      A                      A                      A
 Frequencies --     87.5077               103.8785               104.7625
 Red. masses --      1.0785                 3.5773                 9.4878
 Frc consts  --      0.0049                 0.0227                 0.0614
 IR Inten    --      0.0046                 0.0003                 4.2507

                      7                      8                      9
                      A                      A                      A
 Frequencies --    126.1003               126.5027               183.4243
 Red. masses --     47.1675                 9.8155                 5.3841
 Frc consts  --      0.4419                 0.0925                 0.1067
 IR Inten    --      0.0768                 0.0619                 0.0000

                     10                     11                     12
                      A                      A                      A
 Frequencies --    225.4480               230.2046               232.5777
 Red. masses --     13.9634                 4.5751                12.0510
 Frc consts  --      0.4182                 0.1429                 0.3841
 IR Inten    --      0.0188                 0.5407                 0.4980

                     13                     14                     15
                      A                      A                      A
 Frequencies --    316.8005               333.5355               343.5171
 Red. masses --      2.6749                 6.6215                 4.0549
 Frc consts  --      0.1582                 0.4340                 0.2819
 IR Inten    --      0.0006                 1.4773                 1.1307

                     16                     17                     18
                      A                      A                      A
 Frequencies --    418.3698               425.1724               439.2233
 Red. masses --      7.1596                 8.4550                 3.2757
 Frc consts  --      0.7384                 0.9005                 0.3723
 IR Inten    --      0.4916                39.3543                 3.5239

                     19                     20                     21
                      A                      A                      A
 Frequencies --    453.3319               457.5135               472.4155
 Red. masses --      6.5183                 4.7113                11.7694
 Frc consts  --      0.7893                 0.5810                 1.5476
 IR Inten    --      0.6555                 0.0018                 8.0799

                     22                     23                     24
                      A                      A                      A
 Frequencies --    551.2777               573.5508               659.6980
 Red. masses --      7.2292                 7.4693                 5.5437
 Frc consts  --      1.2944                 1.4477                 1.4215
 IR Inten    --     18.2887                 0.0000                 7.7388

                     25                     26                     27
                      A                      A                      A
 Frequencies --    668.0303               689.6145               712.6890
 Red. masses --      5.5078                 7.3140                 4.4568
 Frc consts  --      1.4482                 2.0494                 1.3338
 IR Inten    --      0.0005                 2.6937                 7.2530

                     28                     29                     30
                      A                      A                      A
 Frequencies --    734.2352               778.6479               850.3119
 Red. masses --      5.5229                 6.6128                 4.1800
 Frc consts  --      1.7542                 2.3622                 1.7807
 IR Inten    --     20.7624                 0.0007                33.4860

                     31                     32                     33
                      A                      A                      A
 Frequencies --    919.0423               924.9003               943.6230
 Red. masses --      1.3246                 3.2326                 1.4017
 Frc consts  --      0.6592                 1.6293                 0.7354
 IR Inten    --      0.0002                15.6259                17.8026

                     34                     35                     36
                      A                      A                      A
 Frequencies --    984.5901              1022.1601              1032.2959
 Red. masses --      5.7867                 1.4598                 1.6463
 Frc consts  --      3.3052                 0.8986                 1.0336
 IR Inten    --     21.8905                 0.3889                82.1142

                     37                     38                     39
                      A                      A                      A
 Frequencies --   1056.4743              1115.4637              1119.9641
 Red. masses --      1.5484                 1.9866                 2.6092
 Frc consts  --      1.0183                 1.4563                 1.9283
 IR Inten    --      0.0002                27.8002                 0.4963

                     40                     41                     42
                      A                      A                      A
 Frequencies --   1164.2157              1168.2751              1254.3458
 Red. masses --      4.9829                 4.3436                 1.2720
 Frc consts  --      3.9792                 3.4929                 1.1792
 IR Inten    --      0.2534                30.1296                 0.5354

                     43                     44                     45
                      A                      A                      A
 Frequencies --   1298.8931              1305.4477              1321.7550
 Red. masses --      6.0042                 4.6099                10.7789
 Frc consts  --      5.9683                 4.6287                11.0950
 IR Inten    --    536.7004                31.4875                33.5008

                     46                     47                     48
                      A                      A                      A
 Frequencies --   1385.8472              1402.7185              1408.3183
 Red. masses --      5.9040                 1.3775                 1.2049
 Frc consts  --      6.6808                 1.5969                 1.4079
 IR Inten    --     14.5568                22.2318                23.7616

                     49                     50                     51
                      A                      A                      A
 Frequencies --   1478.5848              1478.9397              1481.1774
 Red. masses --      1.3641                 1.9115                 1.1188
 Frc consts  --      1.7571                 2.4634                 1.4462
 IR Inten    --      0.0875                 2.4185                48.3675

                     52                     53                     54
                      A                      A                      A
 Frequencies --   1487.1248              1501.5214              1586.5571
 Red. masses --      1.0448                 1.0448                10.3825
 Frc consts  --      1.3613                 1.3879                15.3980
 IR Inten    --      0.0033                23.9672                18.6738

                     55                     56                     57
                      A                      A                      A
 Frequencies --   1599.5191              1652.4793              1709.8957
 Red. masses --      6.8945                 9.0625                12.6756
 Frc consts  --     10.3928                14.5804                21.8353
 IR Inten    --    132.6514                44.4993                28.5713

                     58                     59                     60
                      A                      A                      A
 Frequencies --   1715.9434              3024.6102              3027.6840
 Red. masses --     12.5095                 1.0399                 1.0410
 Frc consts  --     21.7018                 5.6051                 5.6223
 IR Inten    --    365.9724                30.9869                 0.1888

                     61                     62                     63
                      A                      A                      A
 Frequencies --   3066.8303              3073.9852              3142.8613
 Red. masses --      1.0990                 1.0992                 1.0967
 Frc consts  --      6.0900                 6.1199                 6.3827
 IR Inten    --     20.9549                 0.0637                 3.8182

                     64                     65                     66
                      A                      A                      A
 Frequencies --   3143.4346              3210.2345              3211.7765
 Red. masses --      1.0971                 1.0911                 1.0916
 Frc consts  --      6.3873                 6.6251                 6.6342
 IR Inten    --      4.1989                 6.6519                 3.1981

 - Thermochemistry -
 -------------------
 Temperature   298.150 Kelvin.  Pressure   1.00000 Atm.
 Atom     1 has atomic number  6 and mass  12.00000

 Molecular mass:   341.88910 amu.
 Principal axes and moments of inertia in atomic units:
                           1         2         3
     Eigenvalues --  3263.548639967.85970**********
           X            0.83417   0.12721   0.53664
           Y           -0.31451  -0.68958   0.65235
           Z           -0.45304   0.71294   0.53522
 This molecule is an asymmetric top.
 Rotational symmetry number  1.
 Warning -- assumption of classical behavior for rotation
           may cause significant error
 Rotational temperatures (Kelvin)      0.02654     0.00869     0.00656
 Rotational constants (GHZ):           0.55300     0.18106     0.13663
 Zero-point vibrational energy     435562.5 (Joules/Mol)
                                  104.10194 (Kcal/Mol)
 Warning -- explicit consideration of  23 degrees of freedom as
           vibrations may cause significant error
 Vibrational temperatures:     21.55    61.35    61.75   125.90   149.46
          (Kelvin)            150.73   181.43   182.01   263.91   324.37
                              331.21   334.63   455.81   479.88   494.24
                              601.94   611.73   631.94   652.24   658.26
                              679.70   793.17   825.21   949.16   961.15
                              992.20  1025.40  1056.40  1120.30  1223.41
                             1322.30  1330.73  1357.66  1416.61  1470.66
                             1485.24  1520.03  1604.90  1611.38  1675.05
                             1680.89  1804.72  1868.82  1878.25  1901.71
                             1993.92  2018.20  2026.26  2127.35  2127.86
                             2131.08  2139.64  2160.35  2282.70  2301.35
                             2377.55  2460.16  2468.86  4351.74  4356.16
                             4412.48  4422.78  4521.88  4522.70  4618.81
                             4621.03

 Zero-point correction=                           0.165897 (Hartree/Particle)
 Thermal correction to Energy=                    0.181388
 Thermal correction to Enthalpy=                  0.182332
 Thermal correction to Gibbs Free Energy=         0.119364
 Sum of electronic and zero-point Energies=          -5760.829167
 Sum of electronic and thermal Energies=             -5760.813676
 Sum of electronic and thermal Enthalpies=           -5760.812732
 Sum of electronic and thermal Free Energies=        -5760.875700

                     E (Thermal)             CV                S
                      KCal/Mol        Cal/Mol-Kelvin    Cal/Mol-Kelvin
 Total                  113.822             54.963            132.527
 Electronic               0.000              0.000              0.000
 Translational            0.889              2.981             43.382
 Rotational               0.889              2.981             34.418
 Vibrational            112.045             49.001             54.726
 Vibration     1          0.593              1.986              7.209
 Vibration     2          0.595              1.980              5.133
 Vibration     3          0.595              1.980              5.120
 Vibration     4          0.601              1.958              3.715
 Vibration     5          0.605              1.946              3.380
 Vibration     6          0.605              1.945              3.364
 Vibration     7          0.611              1.927              3.005
 Vibration     8          0.611              1.927              2.999
 Vibration     9          0.631              1.862              2.293
 Vibration    10          0.650              1.802              1.915
 Vibration    11          0.652              1.795              1.877
 Vibration    12          0.653              1.791              1.859
 Vibration    13          0.704              1.642              1.327
 Vibration    14          0.715              1.609              1.243
 Vibration    15          0.722              1.588              1.196
 Vibration    16          0.781              1.430              0.898
 Vibration    17          0.787              1.415              0.875
 Vibration    18          0.799              1.385              0.829
 Vibration    19          0.812              1.354              0.786
 Vibration    20          0.816              1.344              0.773
 Vibration    21          0.829              1.311              0.731
 Vibration    22          0.907              1.137              0.542
 Vibration    23          0.930              1.088              0.497

                           ! Non-Optimized Parameters !
 Normal termination of Gaussian 16 at Tue Jan 23 05:02:22 2024.
