 Q-Chem 5.4, Q-Chem, Inc., Pleasanton, CA (2021)
 Q-Chem 5.4.0 for Intel X86 EM64T Linux

User input:
--------------------------------------------------------------
$molecule
-2 1
C                 -3.2595260000      3.4237230000      0.3982160000
C                 -4.4786650000      2.7891960000      0.4338090000
C                 -4.5546420000      1.3739130000      0.4974900000
C                 -2.0439360000      2.6930110000      0.4146720000
C                 -2.1091800000      1.2501010000      0.4625980000
C                 -3.3858880000      0.6405790000      0.5120610000
C                 -0.7874090000      3.4188500000      0.3762350000
C                  0.3987700000      2.5821180000      0.3814270000
C                  0.3341880000      1.1391750000      0.4292520000
C                 -0.9226270000      0.4128830000      0.4721770000
C                  1.6747170000      3.1996260000      0.3312090000
C                  2.8318180000      2.4571270000      0.3344790000
C                  2.7808490000      1.0406880000      0.3976190000
C                  1.5512470000      0.4163400000      0.4446860000
O                 -0.7302110000      4.6940690000      0.3285540000
O                 -0.9798430000     -0.8622830000      0.5197930000
H                 -3.4046710000     -0.4433120000      0.5648720000
H                  1.4730540000     -0.6648540000      0.4981850000
H                 -3.1930470000      4.5060260000      0.3652250000
H                  1.7058540000      4.2835390000      0.2988470000
O                  4.0863840000      3.0878950000      0.3216240000
C                  4.6067310000      3.3107410000     -0.9806040000
O                 -5.6708480000      3.5310160000      0.4537690000
H                  3.7079110000      0.4742110000      0.4197040000
H                  5.5907350000      3.7791230000     -0.8650420000
H                  3.9569240000      3.9784580000     -1.5616890000
H                  4.7255180000      2.3688100000     -1.5356600000
C                 -6.2023250000      3.8033290000     -0.8344850000
H                 -5.5283230000      0.8938390000      0.5454260000
H                 -7.1365970000      4.3585140000     -0.6933680000
H                 -6.4201010000      2.8773760000     -1.3864100000
H                 -5.5099730000      4.4109650000     -1.4321130000
$end
$rem
MAX_SCF_CYCLES=200
BASIS  =  6-311++G(d,p)
GUI  =  2
JOB_TYPE  =  SP
METHOD  =  B3LYP
SOLVENT_METHOD = COSMO
$end
$solvent
dielectric 37.219
opticaldielectric 1.43
$end

--------------------------------------------------------------

             Standard Nuclear Orientation (Angstroms)
    I     Atom           X                Y                Z
 ----------------------------------------------------------------
    1      C       2.4700309231    -1.0092735318     0.2843537431
    2      C       3.6594569677    -0.3247381425     0.2014787657
    3      C       3.6719194776     1.0863011467     0.0542831319
    4      C       1.2228365228    -0.3370469669     0.2173653230
    5      C       1.2231095626     1.0984935711     0.0507332784
    6      C       2.4713637639     1.7628493971    -0.0158982420
    7      C       0.0001740030    -1.1138276010     0.3116413418
    8      C      -1.2226112973    -0.3372565796     0.2172931843
    9      C      -1.2230023811     1.0982731832     0.0505697193
   10      C      -0.0000119387     1.8761787303    -0.0393408287
   11      C      -2.4697528061    -1.0095820179     0.2843400810
   12      C      -3.6592381198    -0.3251527157     0.2013979272
   13      C      -3.6718153397     1.0858751478     0.0540000936
   14      C      -2.4713201519     1.7625025512    -0.0162385506
   15      O       0.0003235310    -2.3833026647     0.4536329866
   16      O      -0.0001419602     3.1455925702    -0.1813892990
   17      H       2.4416034166     2.8423977651    -0.1238387144
   18      H      -2.4416054516     2.8420382243    -0.1242965017
   19      H       2.4523453719    -2.0863635174     0.4126192157
   20      H      -2.4520544293    -2.0866525336     0.4127537680
   21      O      -4.8839139319    -1.0041257291     0.3069165114
   22      C      -5.4112014857    -1.4395866018    -0.9374953047
   23      O       4.8842688255    -1.0035488123     0.3065863637
   24      H      -4.6232691266     1.6090511946     0.0109837473
   25      H      -6.3712557943    -1.9274766873    -0.7343718574
   26      H      -4.7396679545    -2.1575169193    -1.4267536028
   27      H      -5.5801666279    -0.5962698100    -1.6228412704
   28      C       5.4100592541    -1.4406661468    -0.9378787427
   29      H       4.6233471109     1.6095251828     0.0113219636
   30      H       6.3704138129    -1.9281947350    -0.7352866428
   31      H       5.5780469882    -0.5982257367    -1.6245452023
   32      H       4.7379892407    -2.1592958792    -1.4253469279
 ----------------------------------------------------------------

   13    -918.0408215144      8.80e-06  Convergence criterion met
 Total energy in the final basis set =     -918.0408215144
    6    -918.3113742675      4.32e-06  Convergence criterion met
 Total energy in the final basis set =     -918.3113742675

                    Orbital Energies (a.u.)
 --------------------------------------------------------------

 Alpha MOs
 -- Occupied --
-19.1303 -19.1303 -19.0295 -19.0259 -10.2057 -10.2057 -10.2054 -10.2054
-10.1814 -10.1769 -10.1529 -10.1529 -10.1520 -10.1520 -10.1477 -10.1477
-10.1420 -10.1420 -10.1398 -10.1398  -1.0394  -1.0394  -0.9518  -0.9475
 -0.8327  -0.8256  -0.7573  -0.7319  -0.7315  -0.7193  -0.6831  -0.6683
 -0.6369  -0.6063  -0.5878  -0.5683  -0.5336  -0.5195  -0.5125  -0.4748
 -0.4705  -0.4592  -0.4497  -0.4495  -0.4476  -0.4235  -0.4234  -0.4102
 -0.4056  -0.4027  -0.3853  -0.3842  -0.3786  -0.3697  -0.3599  -0.3438
 -0.3404  -0.3346  -0.3301  -0.3230  -0.3119  -0.3004  -0.2692  -0.2681
 -0.2389  -0.2321  -0.2279  -0.2161  -0.2115  -0.2031  -0.1092

          Ground-State Mulliken Net Atomic Charges

     Atom                 Charge (a.u.)
  ----------------------------------------
      1 C                    -0.107291
      2 C                    -0.662460
      3 C                    -0.016262
      4 C                     0.352705
      5 C                     0.164814
      6 C                     0.002057
      7 C                    -0.608236
      8 C                     0.353685
      9 C                     0.164967
     10 C                    -0.405995
     11 C                    -0.107280
     12 C                    -0.664097
     13 C                    -0.016729
     14 C                     0.002173
     15 O                    -0.694520
     16 O                    -0.679638
     17 H                     0.165305
     18 H                     0.165231
     19 H                     0.172365
     20 H                     0.172529
     21 O                    -0.240266
     22 C                    -0.310643
     23 O                    -0.240215
     24 H                     0.209515
     25 H                     0.174088
     26 H                     0.147243
     27 H                     0.143394
     28 C                    -0.310565
     29 H                     0.209514
     30 H                     0.174060
     31 H                     0.143314
     32 H                     0.147240
  ----------------------------------------
  Sum of atomic charges =    -2.000000

                    Cartesian Multipole Moments
 -----------------------------------------------------------------
    Charge (ESU x 10^10)
                -9.6064
    Dipole Moment (Debye)
         X      -0.0031      Y      -2.7704      Z      -4.9190
       Tot       5.6455
    Quadrupole Moments (Debye-Ang)
        XX    -147.9408     XY      -0.0087     YY    -177.3987
        XZ      -0.0021     YZ      10.0883     ZZ    -128.6800

 Total job time:  104.63s(wall), 791.04s(cpu)
        *  Thank you very much for using Q-Chem.  Have a nice day.  *
