 Q-Chem 5.4, Q-Chem, Inc., Pleasanton, CA (2021)
 Q-Chem 5.4.0 for Intel X86 EM64T Linux

User input:
--------------------------------------------------------------
$molecule
0 1
Cl                 2.5930850000      3.1395560000     -0.6929400000
C                  2.4787410000      1.4434990000     -0.2834950000
C                  3.6819550000      0.7406150000     -0.2534130000
C                  3.6953370000     -0.6163910000      0.0488610000
C                  2.5050040000     -1.2824320000      0.3077360000
C                  1.2949150000     -0.5911970000      0.2585680000
C                  0.0505030000     -1.3903560000      0.5265690000
O                  0.1449480000     -2.5124840000      0.9856430000
C                 -1.2607740000     -0.7593900000      0.2005790000
C                 -2.4753170000     -1.4702840000      0.1353840000
Cl                -2.5851920000     -3.2030940000      0.3418910000
C                 -3.6733250000     -0.8107170000     -0.1336450000
C                 -3.6891570000      0.5660490000     -0.3267440000
C                 -2.5058100000      1.2897290000     -0.2673940000
C                 -1.3000180000      0.6344080000     -0.0200650000
C                 -0.0619690000      1.4863480000      0.0035860000
O                 -0.1672230000      2.6974260000      0.0360340000
C                  1.2570940000      0.7912370000     -0.0248940000
H                  4.6021630000      1.2690710000     -0.4669040000
H                  4.6382960000     -1.1499220000      0.0757740000
H                  2.4869150000     -2.3377720000      0.5458440000
H                 -4.5876640000     -1.3875400000     -0.1871900000
H                 -4.6283190000      1.0679160000     -0.5283810000
H                 -2.4897820000      2.3617310000     -0.4134110000
$end
$rem
MAX_SCF_CYCLES=200
BASIS  =  6-311++G(d,p)
GUI  =  2
JOB_TYPE  =  SP
METHOD  =  B3LYP
SOLVENT_METHOD = PCM
$end
$pcm
theory = CPCM
$end
$solvent
dielectric 37.219
opticaldielectric 1.43
$end

--------------------------------------------------------------

             Standard Nuclear Orientation (Angstroms)
    I     Atom           X                Y                Z
 ----------------------------------------------------------------
    1      Cl      2.5930850000     3.1395560000    -0.6929400000
    2      C       2.4787410000     1.4434990000    -0.2834950000
    3      C       3.6819550000     0.7406150000    -0.2534130000
    4      C       3.6953370000    -0.6163910000     0.0488610000
    5      C       2.5050040000    -1.2824320000     0.3077360000
    6      C       1.2949150000    -0.5911970000     0.2585680000
    7      C       0.0505030000    -1.3903560000     0.5265690000
    8      O       0.1449480000    -2.5124840000     0.9856430000
    9      C      -1.2607740000    -0.7593900000     0.2005790000
   10      C      -2.4753170000    -1.4702840000     0.1353840000
   11      Cl     -2.5851920000    -3.2030940000     0.3418910000
   12      C      -3.6733250000    -0.8107170000    -0.1336450000
   13      C      -3.6891570000     0.5660490000    -0.3267440000
   14      C      -2.5058100000     1.2897290000    -0.2673940000
   15      C      -1.3000180000     0.6344080000    -0.0200650000
   16      C      -0.0619690000     1.4863480000     0.0035860000
   17      O      -0.1672230000     2.6974260000     0.0360340000
   18      C       1.2570940000     0.7912370000    -0.0248940000
   19      H       4.6021630000     1.2690710000    -0.4669040000
   20      H       4.6382960000    -1.1499220000     0.0757740000
   21      H       2.4869150000    -2.3377720000     0.5458440000
   22      H      -4.5876640000    -1.3875400000    -0.1871900000
   23      H      -4.6283190000     1.0679160000    -0.5283810000
   24      H      -2.4897820000     2.3617310000    -0.4134110000
 ----------------------------------------------------------------

    8   -1608.1898243902      8.42e-06  Convergence criterion met
 Total energy in the final basis set =    -1608.1898243902

                    Orbital Energies (a.u.)
 --------------------------------------------------------------

 Alpha MOs
 -- Occupied --
********-101.5671 -19.1369 -19.1369 -10.2930 -10.2930 -10.2661 -10.2661
-10.2254 -10.2254 -10.2189 -10.2189 -10.2070 -10.2070 -10.2049 -10.2049
-10.2011 -10.2010  -9.4821  -9.4820  -7.2466  -7.2466  -7.2372  -7.2372
 -7.2361  -7.2361  -1.0764  -1.0745  -0.9197  -0.9157  -0.8712  -0.8591
 -0.8198  -0.7822  -0.7693  -0.7623  -0.6955  -0.6750  -0.6567  -0.6135
 -0.5839  -0.5760  -0.5609  -0.5155  -0.5020  -0.4993  -0.4973  -0.4686
 -0.4676  -0.4597  -0.4595  -0.4570  -0.4504  -0.4302  -0.4164  -0.4057
 -0.3968  -0.3922  -0.3883  -0.3827  -0.3540  -0.3517  -0.3392  -0.3339
 -0.2981  -0.2898  -0.2840  -0.2729  -0.2715  -0.2696

          Ground-State Mulliken Net Atomic Charges

     Atom                 Charge (a.u.)
  ----------------------------------------
      1 Cl                    0.437500
      2 C                     0.902269
      3 C                    -0.318849
      4 C                    -0.909706
      5 C                     0.566233
      6 C                     0.421562
      7 C                    -2.011823
      8 O                    -0.190110
      9 C                     0.411122
     10 C                     0.905889
     11 Cl                    0.436411
     12 C                    -0.320520
     13 C                    -0.910026
     14 C                     0.559870
     15 C                     0.418087
     16 C                    -2.006845
     17 O                    -0.190693
     18 C                     0.405674
     19 H                     0.250985
     20 H                     0.231710
     21 H                     0.214257
     22 H                     0.250957
     23 H                     0.231674
     24 H                     0.214373
  ----------------------------------------
  Sum of atomic charges =     0.000000

                    Cartesian Multipole Moments
 -----------------------------------------------------------------
    Charge (ESU x 10^10)
                 0.0000
    Dipole Moment (Debye)
         X       0.0364      Y      -0.2930      Z      -1.6112
       Tot       1.6380
    Quadrupole Moments (Debye-Ang)
        XX     -81.2648     XY      -8.4889     YY    -136.6666
        XZ       2.3513     YZ       3.0594     ZZ    -119.2022

 Total job time:  51.43s(wall), 308.27s(cpu)
        *  Thank you very much for using Q-Chem.  Have a nice day.  *
