 Q-Chem 5.4, Q-Chem, Inc., Pleasanton, CA (2021)
 Q-Chem 5.4.0 for Intel X86 EM64T Linux

User input:
--------------------------------------------------------------
$molecule
-1 1
O                 -1.7480190000     -2.7394450000     -1.4652100000
S                 -2.8292550000     -2.3154200000     -0.5491090000
O                 -2.9702900000     -3.0914890000      0.6995820000
O                 -4.1225510000     -2.0453950000     -1.2322070000
C                 -2.3230350000     -0.6001670000     -0.0153920000
C                 -3.3547410000      0.3403310000      0.0079710000
C                 -3.1097570000      1.6848360000      0.2795720000
C                 -1.8090320000      2.1257890000      0.4728660000
C                 -0.7531650000      1.2103000000      0.4346370000
C                  0.6298140000      1.7564210000      0.5318790000
O                  0.8445390000      2.9385700000      0.7726530000
C                  1.7571600000      0.8194400000      0.2617160000
C                  3.0580470000      1.3127720000      0.1081660000
C                  4.1049310000      0.4385070000     -0.1545690000
C                  3.8622360000     -0.9368390000     -0.2455580000
C                  2.5769640000     -1.4343390000     -0.0656800000
C                  1.5165640000     -0.5570150000      0.1767090000
C                  0.1425010000     -1.1150450000      0.4161670000
O                  0.0215770000     -2.2574110000      0.8000920000
C                 -1.0075610000     -0.1721850000      0.2472020000
H                 -4.3519910000     -0.0116140000     -0.2259420000
H                 -3.9342540000      2.3900960000      0.3030730000
H                 -1.5786560000      3.1714230000      0.6346830000
H                  3.2196650000      2.3803330000      0.1966880000
H                  5.1112490000      0.8213590000     -0.2872840000
H                  4.6807240000     -1.6179190000     -0.4533670000
H                  2.3663380000     -2.4958940000     -0.1114760000
$end
$rem
MAX_SCF_CYCLES=200
BASIS  =  6-311++G(d,p)
GUI  =  2
JOB_TYPE  =  SP
METHOD  =  B3LYP
SOLVENT_METHOD = PCM
$end
$pcm
theory = CPCM
$end
$solvent
dielectric 37.219
opticaldielectric 1.43
$end

--------------------------------------------------------------

             Standard Nuclear Orientation (Angstroms)
    I     Atom           X                Y                Z
 ----------------------------------------------------------------
    1      O      -1.7480190000    -2.7394450000    -1.4652100000
    2      S      -2.8292550000    -2.3154200000    -0.5491090000
    3      O      -2.9702900000    -3.0914890000     0.6995820000
    4      O      -4.1225510000    -2.0453950000    -1.2322070000
    5      C      -2.3230350000    -0.6001670000    -0.0153920000
    6      C      -3.3547410000     0.3403310000     0.0079710000
    7      C      -3.1097570000     1.6848360000     0.2795720000
    8      C      -1.8090320000     2.1257890000     0.4728660000
    9      C      -0.7531650000     1.2103000000     0.4346370000
   10      C       0.6298140000     1.7564210000     0.5318790000
   11      O       0.8445390000     2.9385700000     0.7726530000
   12      C       1.7571600000     0.8194400000     0.2617160000
   13      C       3.0580470000     1.3127720000     0.1081660000
   14      C       4.1049310000     0.4385070000    -0.1545690000
   15      C       3.8622360000    -0.9368390000    -0.2455580000
   16      C       2.5769640000    -1.4343390000    -0.0656800000
   17      C       1.5165640000    -0.5570150000     0.1767090000
   18      C       0.1425010000    -1.1150450000     0.4161670000
   19      O       0.0215770000    -2.2574110000     0.8000920000
   20      C      -1.0075610000    -0.1721850000     0.2472020000
   21      H      -4.3519910000    -0.0116140000    -0.2259420000
   22      H      -3.9342540000     2.3900960000     0.3030730000
   23      H      -1.5786560000     3.1714230000     0.6346830000
   24      H       3.2196650000     2.3803330000     0.1966880000
   25      H       5.1112490000     0.8213590000    -0.2872840000
   26      H       4.6807240000    -1.6179190000    -0.4533670000
   27      H       2.3663380000    -2.4958940000    -0.1114760000
 ----------------------------------------------------------------

    9   -1312.4192639200      4.32e-06  Convergence criterion met
 Total energy in the final basis set =    -1312.4192639200

                    Orbital Energies (a.u.)
 --------------------------------------------------------------

 Alpha MOs
 -- Occupied --
-89.0527 -19.1306 -19.1303 -19.0970 -19.0961 -19.0950 -10.2829 -10.2828
-10.2181 -10.2173 -10.2103 -10.2048 -10.2039 -10.1966 -10.1964 -10.1955
-10.1946 -10.1943 -10.1934 -10.1933  -8.1111  -6.0738  -6.0737  -6.0732
 -1.1175  -1.0693  -1.0626  -0.9837  -0.9793  -0.8938  -0.8804  -0.8109
 -0.7838  -0.7742  -0.7677  -0.6900  -0.6695  -0.6426  -0.6329  -0.5987
 -0.5672  -0.5595  -0.5495  -0.5091  -0.4917  -0.4888  -0.4848  -0.4761
 -0.4604  -0.4589  -0.4554  -0.4544  -0.4473  -0.4418  -0.4368  -0.4168
 -0.3962  -0.3910  -0.3899  -0.3745  -0.3698  -0.3663  -0.3420  -0.3396
 -0.3179  -0.3036  -0.3002  -0.2883  -0.2820  -0.2777  -0.2720  -0.2698
 -0.2683  -0.2616

          Ground-State Mulliken Net Atomic Charges

     Atom                 Charge (a.u.)
  ----------------------------------------
      1 O                    -0.406274
      2 S                     0.471348
      3 O                    -0.359692
      4 O                    -0.383959
      5 C                    -1.022459
      6 C                     0.397686
      7 C                    -0.469504
      8 C                    -0.337815
      9 C                     0.953929
     10 C                    -0.260493
     11 O                    -0.290174
     12 C                     0.437715
     13 C                     0.296729
     14 C                    -0.483689
     15 C                    -0.420548
     16 C                     0.054991
     17 C                     0.169283
     18 C                    -0.892740
     19 O                    -0.248616
     20 C                     0.239126
     21 H                     0.255119
     22 H                     0.234056
     23 H                     0.198896
     24 H                     0.205285
     25 H                     0.219873
     26 H                     0.229201
     27 H                     0.212725
  ----------------------------------------
  Sum of atomic charges =    -1.000000

                    Cartesian Multipole Moments
 -----------------------------------------------------------------
    Charge (ESU x 10^10)
                -4.8032
    Dipole Moment (Debye)
         X      14.3959      Y      14.1699      Z       1.4971
       Tot      20.2551
    Quadrupole Moments (Debye-Ang)
        XX    -144.8595     XY     -48.9840     YY    -173.5762
        XZ     -12.6234     YZ      -6.2424     ZZ    -137.4392

 Total job time:  68.99s(wall), 399.25s(cpu)
        *  Thank you very much for using Q-Chem.  Have a nice day.  *
