 Q-Chem 5.4, Q-Chem, Inc., Pleasanton, CA (2021)
 Q-Chem 5.4.0 for Intel X86 EM64T Linux

User input:
--------------------------------------------------------------
$molecule
0 1
C                  4.1593240000     -1.3195150000      3.8517880000
C                  3.3650120000     -0.9824240000      4.9492070000
C                  2.4725130000      0.0986620000      4.8570630000
C                  4.0515270000     -0.5723860000      2.6758220000
C                  3.1643330000      0.5063550000      2.5765620000
C                  2.3763410000      0.8308830000      3.6858500000
C                  4.8879100000     -0.9243030000      1.5114420000
C                  4.7440090000     -0.1139800000      0.2698790000
C                  3.8992760000      0.9392570000      0.1574950000
C                  3.0519090000      1.3038080000      1.3175630000
O                  5.6957120000     -1.8473480000      1.5040120000
O                  2.2729530000      2.2457400000      1.2486020000
O                  5.5374740000     -0.5149220000     -0.7395180000
O                  3.3827850000     -1.6334080000      6.1384510000
C                  4.2652760000     -2.7417280000      6.3017470000
C                  3.7620670000      1.7331110000     -1.1106840000
C                  2.6348250000      1.2052350000     -2.0252300000
C                  2.4990470000      2.0301550000     -3.3105260000
C                  1.3402410000      1.6125310000     -4.2325550000
C                  1.5234690000      0.2030580000     -4.8268880000
C                  1.1400450000      2.6389490000     -5.3636380000
C                 -0.0076360000      2.2574160000     -6.3089960000
C                  0.1830110000      0.8490140000     -6.8876650000
C                  0.3771640000     -0.1863560000     -5.7721390000
H                  4.8605280000     -2.1419300000      3.8747420000
H                  1.8667300000      0.3408280000      5.7219580000
H                  1.6906020000      1.6654590000      3.6082530000
H                  6.0493640000     -1.2712900000     -0.3966120000
H                  4.1061190000     -3.0967310000      7.3179390000
H                  5.3095280000     -2.4375370000      6.1804240000
H                  4.0301150000     -3.5426330000      5.5939480000
H                  4.7098980000      1.7068230000     -1.6544850000
H                  3.5475120000      2.7719110000     -0.8479090000
H                  1.6890580000      1.2311360000     -1.4733210000
H                  2.8380400000      0.1570310000     -2.2639230000
H                  3.4401790000      1.9834750000     -3.8752820000
H                  2.3613320000      3.0834100000     -3.0350130000
H                  0.4197600000      1.6033930000     -3.6289920000
H                  1.6077980000     -0.5403590000     -4.0284840000
H                  2.4736870000      0.1755350000     -5.3789350000
H                  2.0725010000      2.7171870000     -5.9401150000
H                  0.9585950000      3.6302940000     -4.9334570000
H                 -0.0892060000      2.9925050000     -7.1167470000
H                 -0.9565150000      2.2953010000     -5.7579130000
H                  1.0644870000      0.8439930000     -7.5424480000
H                 -0.6722190000      0.5763920000     -7.5150740000
H                  0.5664420000     -1.1760560000     -6.2012780000
H                 -0.5525500000     -0.2718150000     -5.1942660000
$end
$rem
SCF_ALGORITHM = RCA_DIIS
BASIS  =  6-311++G(d,p)
GUI  =  2
JOB_TYPE  =  SP
THRESH = 14
SCF_CONVERGENCE  = 8
METHOD  =  B3LYP
SOLVENT_METHOD = COSMO
$end
$solvent
dielectric 37.219
opticaldielectric 1.43
$end

--------------------------------------------------------------

             Standard Nuclear Orientation (Angstroms)
    I     Atom           X                Y                Z
 ----------------------------------------------------------------
    1      C       4.4549151853    -0.4241530491     0.4240835686
    2      C       5.1823771415     0.7457415596     0.6499951970
    3      C       4.5971160571     1.9934272647     0.3769718177
    4      C       3.1515158739    -0.3326454477    -0.0713905104
    5      C       2.5616174897     0.9072489706    -0.3458529197
    6      C       3.3048494752     2.0694810411    -0.1143523545
    7      C       2.3765644474    -1.5659181703    -0.3114979039
    8      C       0.9871700654    -1.4348610999    -0.8322827351
    9      C       0.4026313300    -0.2454602538    -1.1136228798
   10      C       1.1675755143     1.0016286203    -0.8763134531
   11      O       2.8084126079    -2.6955001264    -0.1061613049
   12      O       0.6678432400     2.0937706973    -1.1134996661
   13      O       0.3567273335    -2.6097735991    -1.0093309726
   14      O       6.4508567527     0.7806733535     1.1276316541
   15      C       7.1062192191    -0.4500260243     1.4271450097
   16      C      -1.0058549651    -0.1385044457    -1.6255166878
   17      C      -2.0398421410     0.0409635556    -0.4922101359
   18      C      -3.4712791190     0.1588944660    -1.0288617525
   19      C      -4.5470048412     0.4231289971     0.0390206900
   20      C      -4.7167809799    -0.7494854427     1.0236880404
   21      C      -5.8999827405     0.7614260370    -0.6151711921
   22      C      -7.0030102536     1.0302988592     0.4180173516
   23      C      -7.1564158379    -0.1414248211     1.3969609800
   24      C      -5.8174632962    -0.4861871381     2.0621148846
   25      H       4.8622258676    -1.4064663680     0.6183486437
   26      H       5.1815208467     2.8869960924     0.5604563343
   27      H       2.8478960317     3.0279761998    -0.3270891673
   28      H       0.9952729540    -3.3005626041    -0.7509156297
   29      H       8.0949340707    -0.1757709662     1.7894037112
   30      H       7.2047234001    -1.0738470300     0.5333564702
   31      H       6.5723831526    -1.0035078142     2.2058656924
   32      H      -1.2490871803    -1.0381979139    -2.1966418438
   33      H      -1.0657847563     0.7202405835    -2.2986848566
   34      H      -1.7883955340     0.9418565370     0.0778039554
   35      H      -1.9583036075    -0.8063675779     0.1950916376
   36      H      -3.7310326887    -0.7554328945    -1.5796714875
   37      H      -3.5018731305     0.9749093223    -1.7619392997
   38      H      -4.2321924764     1.3037812800     0.6195392520
   39      H      -3.7727516573    -0.9579704698     1.5361056387
   40      H      -4.9667611408    -1.6546093786     0.4521215673
   41      H      -6.2026875285    -0.0776942272    -1.2571743865
   42      H      -5.7835243742     1.6287368566    -1.2746816890
   43      H      -7.9530289353     1.2285334493    -0.0895639055
   44      H      -6.7560255604     1.9401695812     0.9807188118
   45      H      -7.5262366269    -1.0205235366     0.8527331248
   46      H      -7.9092872824     0.0935715186     2.1567928492
   47      H      -5.9312124830    -1.3578423329     2.7153919135
   48      H      -5.5109965807     0.3472182188     2.7079648904
 ----------------------------------------------------------------

   16   -1077.7932221147      1.69E-09 Convergence criterion met
   11   -1077.8098005436      9.48E-09 Convergence criterion met
 Total energy in the final basis set = -1077.80980054

                    Orbital Energies (a.u.)
 --------------------------------------------------------------

 Alpha MOs
 -- Occupied --
-19.1767 -19.1740 -19.1505 -19.1278 -10.2944 -10.2796 -10.2653 -10.2617
-10.2244 -10.2135 -10.2029 -10.2026 -10.1995 -10.1984 -10.1953 -10.1745
-10.1652 -10.1635 -10.1583 -10.1562 -10.1561 -10.1556 -10.1550 -10.1548
 -1.1071  -1.0894  -1.0672  -1.0615  -0.8918  -0.8434  -0.8302  -0.7998
 -0.7815  -0.7758  -0.7440  -0.7341  -0.7173  -0.7027  -0.6699  -0.6502
 -0.6272  -0.6074  -0.6062  -0.5946  -0.5747  -0.5699  -0.5476  -0.5458
 -0.5229  -0.5129  -0.5104  -0.4824  -0.4727  -0.4722  -0.4694  -0.4672
 -0.4582  -0.4512  -0.4444  -0.4357  -0.4321  -0.4281  -0.4252  -0.4196
 -0.4171  -0.4126  -0.3980  -0.3937  -0.3878  -0.3808  -0.3792  -0.3720
 -0.3638  -0.3531  -0.3493  -0.3424  -0.3400  -0.3362  -0.3315  -0.3223
 -0.3094  -0.3049  -0.2937  -0.2894  -0.2856  -0.2784  -0.2658  -0.2448

          Ground-State Mulliken Net Atomic Charges

     Atom                 Charge (a.u.)
  ----------------------------------------
      1 C                     0.992053
      2 C                    -0.932200
      3 C                    -0.473138
      4 C                     0.878807
      5 C                    -0.507366
      6 C                     0.236737
      7 C                    -0.588279
      8 C                    -0.738640
      9 C                     1.625772
     10 C                    -1.061272
     11 O                    -0.322861
     12 O                    -0.301545
     13 O                    -0.232329
     14 O                    -0.191102
     15 C                    -0.372171
     16 C                     0.026547
     17 C                    -0.550029
     18 C                    -0.738642
     19 C                     0.927392
     20 C                    -0.469227
     21 C                    -0.458233
     22 C                    -0.339278
     23 C                    -0.401183
     24 C                    -0.363430
     25 H                     0.197795
     26 H                     0.246960
     27 H                     0.218322
     28 H                     0.328347
     29 H                     0.211363
     30 H                     0.186884
     31 H                     0.186144
     32 H                     0.239938
     33 H                     0.224297
     34 H                     0.186386
     35 H                     0.167028
     36 H                     0.123898
     37 H                     0.143101
     38 H                     0.150946
     39 H                     0.143374
     40 H                     0.163084
     41 H                     0.157798
     42 H                     0.146723
     43 H                     0.183269
     44 H                     0.132696
     45 H                     0.125613
     46 H                     0.176334
     47 H                     0.171689
     48 H                     0.141630
  ----------------------------------------
  Sum of atomic charges =     0.000000

                    Cartesian Multipole Moments
 -----------------------------------------------------------------
    Charge (ESU x 10^10)
                -0.0000
    Dipole Moment (Debye)
         X       3.6867      Y      -1.8093      Z       1.7850
       Tot       4.4780
    Quadrupole Moments (Debye-Ang)
        XX    -113.8061     XY      -3.2614     YY    -151.0726
        XZ       6.7967     YZ       1.6155     ZZ    -145.7122

 Total job time:  518.18s(wall), 3893.47s(cpu)
        *  Thank you very much for using Q-Chem.  Have a nice day.  *
