 Gaussian 16, Revision A.03,
 Gaussian 16:  ES64L-G16RevA.03 25-Dec-2016

 --------------------------------------
 #P UB3LYP/6-311++G(d,p) nosym opt freq
 --------------------------------------

 -------
 Radical
 -------
 Symbolic Z-matrix:
 Charge = -1 Multiplicity = 2

 SCF Done:  E(UB3LYP) =  -764.435506006     A.U. after   19 cycles
 Optimization completed.
    -- Stationary point found.
 Normal termination of Gaussian 16 at Sun Jan  7 20:18:21 2024.

 ----------------------------------------------------------------------
 #P Geom=AllCheck Guess=TCheck SCRF=Check GenChk UB3LYP/6-311++G(d,p) F
 req
 ----------------------------------------------------------------------

 Structure from the checkpoint file:  "260-rad.chk"
 -------
 Radical
 -------
 Charge = -1 Multiplicity = 2

                          Input orientation:
 ---------------------------------------------------------------------
 Center     Atomic      Atomic             Coordinates (Angstroms)
 Number     Number       Type             X           Y           Z
 ---------------------------------------------------------------------
      1          6           0       -2.594485   -2.492133    0.405576
      2          8           0       -2.412998   -1.286646   -0.333922
      3          6           0       -1.184530   -0.680445   -0.193010
      4          6           0       -1.149322    0.608187    0.324943
      5          8           0       -2.321505    1.139953    0.814557
      6          6           0       -2.779266    2.324542    0.166380
      7          6           0        0.073692    1.372759    0.441653
      8          8           0        0.099281    2.534356    0.931505
      9          6           0        1.292365    0.701096   -0.030847
     10          6           0        2.527631    1.374575    0.044486
     11          6           0        3.697370    0.769818   -0.379804
     12          6           0        3.663077   -0.540895   -0.896097
     13          6           0        2.459979   -1.219293   -0.975825
     14          6           0        1.258508   -0.621434   -0.546696
     15          6           0       -0.001007   -1.370075   -0.659467
     16          8           0       -0.045053   -2.532086   -1.147057
     17          1           0       -1.857018   -3.242606    0.114048
     18          1           0       -2.528297   -2.293602    1.483566
     19          1           0       -3.601462   -2.844588    0.170370
     20          1           0       -2.035801    3.120728    0.239838
     21          1           0       -3.696069    2.618883    0.682504
     22          1           0       -3.012562    2.118899   -0.886785
     23          1           0        2.523510    2.380909    0.447671
     24          1           0        4.641095    1.303765   -0.315621
     25          1           0        4.580279   -1.017101   -1.230472
     26          1           0        2.402588   -2.227567   -1.369996
 ---------------------------------------------------------------------

 SCF Done:  E(UB3LYP) =  -764.435506006     A.U. after    2 cycles

 Alpha  occ. eigenvalues --  -19.01042 -19.01039 -18.94347 -18.94346 -10.09302
 Alpha  occ. eigenvalues --  -10.09302 -10.09241 -10.09240 -10.08909 -10.08854
 Alpha  occ. eigenvalues --  -10.05613 -10.05565 -10.04909 -10.04908 -10.04817
 Alpha  occ. eigenvalues --  -10.04774  -0.93577  -0.91669  -0.86541  -0.86294
 Alpha  occ. eigenvalues --   -0.73530  -0.67704  -0.62823  -0.62447  -0.58784
 Alpha  occ. eigenvalues --   -0.55927  -0.53677  -0.48573  -0.47813  -0.43895
 Alpha  occ. eigenvalues --   -0.40413  -0.39770  -0.37633  -0.34680  -0.34355
 Alpha  occ. eigenvalues --   -0.34264  -0.32811  -0.32058  -0.31677  -0.30138
 Alpha  occ. eigenvalues --   -0.29995  -0.28137  -0.27635  -0.26837  -0.24528
 Alpha  occ. eigenvalues --   -0.24323  -0.23472  -0.22718  -0.21770  -0.21727
 Alpha  occ. eigenvalues --   -0.16560  -0.16169  -0.13955  -0.13346  -0.10786
 Alpha  occ. eigenvalues --   -0.10684  -0.10424  -0.02111
 Alpha virt. eigenvalues --    0.08358   0.08877   0.08886   0.09779   0.10358
 Alpha virt. eigenvalues --    0.11142   0.11841   0.12006   0.12899   0.13316
 Alpha virt. eigenvalues --    0.13337   0.15243   0.15318   0.15833   0.17051

  Beta  occ. eigenvalues --  -19.01023 -19.01020 -18.93702 -18.93702 -10.09295
  Beta  occ. eigenvalues --  -10.09295 -10.09093 -10.09093 -10.08788 -10.08732
  Beta  occ. eigenvalues --  -10.05571 -10.05522 -10.04912 -10.04911 -10.04748
  Beta  occ. eigenvalues --  -10.04703  -0.93467  -0.91553  -0.85458  -0.85196
  Beta  occ. eigenvalues --   -0.73329  -0.67273  -0.62645  -0.62283  -0.58593
  Beta  occ. eigenvalues --   -0.55771  -0.52938  -0.48472  -0.47505  -0.43658
  Beta  occ. eigenvalues --   -0.40259  -0.39591  -0.37539  -0.34377  -0.34142
  Beta  occ. eigenvalues --   -0.34100  -0.32692  -0.31967  -0.31584  -0.30106
  Beta  occ. eigenvalues --   -0.29831  -0.27124  -0.26899  -0.26421  -0.24378
  Beta  occ. eigenvalues --   -0.23162  -0.22859  -0.21721  -0.21507  -0.20778
  Beta  occ. eigenvalues --   -0.16302  -0.15856  -0.12665  -0.11871  -0.10147
  Beta  occ. eigenvalues --   -0.10077  -0.09464
  Beta virt. eigenvalues --    0.04445   0.08352   0.08919   0.09323   0.09970
  Beta virt. eigenvalues --    0.10354   0.11820   0.12009   0.12240   0.12900
  Beta virt. eigenvalues --    0.13337   0.13338   0.15237   0.15338   0.15898

 Mulliken charges and spin densities:
               1          2
     1  C   -0.273359   0.002368
     2  O   -0.139184   0.000069
     3  C    0.028136   0.112539
     4  C    0.029707   0.112750
     5  O   -0.139006   0.000050
     6  C   -0.273571   0.002375
     7  C   -0.793465   0.050506
     8  O   -0.388848   0.240440
     9  C    0.584779   0.039755
    10  C    0.124178   0.023434
    11  C   -0.327264   0.032952
    12  C   -0.327011   0.032952
    13  C    0.124468   0.023474
    14  C    0.585809   0.039839
    15  C   -0.794811   0.050439
    16  O   -0.388840   0.240463
    17  H    0.177747  -0.000708
    18  H    0.111099   0.001359
    19  H    0.114676   0.001913
    20  H    0.177666  -0.000712
    21  H    0.114763   0.001917
    22  H    0.111167   0.001357
    23  H    0.155326  -0.001900
    24  H    0.125253  -0.002865
    25  H    0.125254  -0.002863
    26  H    0.155331  -0.001902
 Sum of Mulliken charges =  -1.00000   1.00000

 Dipole moment (field-independent basis, Debye):
    X=             -0.0754    Y=             -0.0050    Z=              0.5080  Tot=              0.5136
 Quadrupole moment (field-independent basis, Debye-Ang):
   XX=           -108.3618   YY=           -119.3181   ZZ=           -105.4367
   XY=             -1.5249   XZ=              0.8682   YZ=            -12.8268

  Exact polarizability: 240.520   5.902 201.956 -19.813  31.707 113.865
 Approx polarizability: 340.204  10.630 350.585 -25.112  74.530 187.162

                      1                      2                      3
                      A                      A                      A
 Frequencies --     64.5067                74.9993                78.1478
 Red. masses --      4.5565                 2.9536                 3.3132
 Frc consts  --      0.0112                 0.0098                 0.0119
 IR Inten    --      4.5417                10.5683                 0.1804

                      4                      5                      6
                      A                      A                      A
 Frequencies --     81.3232               142.3861               148.5824
 Red. masses --      2.9223                 4.6287                 1.2765
 Frc consts  --      0.0114                 0.0553                 0.0166
 IR Inten    --      1.1432                 0.1800                 0.8792

                      7                      8                      9
                      A                      A                      A
 Frequencies --    155.2047               187.3763               209.2575
 Red. masses --      1.1480                 3.5356                 4.7188
 Frc consts  --      0.0163                 0.0731                 0.1217
 IR Inten    --      0.4018                 5.7730                 0.6263

                     10                     11                     12
                      A                      A                      A
 Frequencies --    258.9723               275.8504               331.1667
 Red. masses --      4.5429                 5.3291                 9.1142
 Frc consts  --      0.1795                 0.2389                 0.5889
 IR Inten    --      6.8473                 1.6231                 1.4426

                     13                     14                     15
                      A                      A                      A
 Frequencies --    333.6803               373.7455               392.9710
 Red. masses --      6.3762                11.3662                 7.0781
 Frc consts  --      0.4183                 0.9354                 0.6440
 IR Inten    --      0.6930                12.5563                 0.7810

                     16                     17                     18
                      A                      A                      A
 Frequencies --    410.0632               434.0659               446.1755
 Red. masses --      8.2408                 4.1453                 6.1589
 Frc consts  --      0.8164                 0.4602                 0.7224
 IR Inten    --      1.1672                 0.7926                 0.3686

                     19                     20                     21
                      A                      A                      A
 Frequencies --    500.0345               509.0658               590.2381
 Red. masses --      4.6870                10.2661                 5.3286
 Frc consts  --      0.6905                 1.5675                 1.0938
 IR Inten    --      9.7810                 1.2713                 0.3368

                     22                     23                     24
                      A                      A                      A
 Frequencies --    606.6020               670.2108               714.4267
 Red. masses --      6.7169                 6.4643                 2.6456
 Frc consts  --      1.4562                 1.7108                 0.7956
 IR Inten    --      9.6565                 7.9386                44.8225

                     25                     26                     27
                      A                      A                      A
 Frequencies --    717.1221               727.8314               776.8275
 Red. masses --      6.3204                 5.5928                 6.4099
 Frc consts  --      1.9151                 1.7456                 2.2790
 IR Inten    --      2.5101                10.1743                 0.5063

                     28                     29                     30
                      A                      A                      A
 Frequencies --    778.7933               867.6517               902.6868
 Red. masses --      1.9629                 1.4022                 7.7543
 Frc consts  --      0.7014                 0.6220                 3.7228
 IR Inten    --     22.4766                 0.0020                 6.4954

                     31                     32                     33
                      A                      A                      A
 Frequencies --    923.4953               969.9551               976.9615
 Red. masses --      6.1066                 7.0119                 1.3659
 Frc consts  --      3.0684                 3.8868                 0.7681
 IR Inten    --     62.7563                31.5332                 3.6700

                     34                     35                     36
                      A                      A                      A
 Frequencies --    978.3781              1034.0068              1058.5937
 Red. masses --      1.2465                 2.8160                 3.7155
 Frc consts  --      0.7030                 1.7739                 2.4532
 IR Inten    --      0.0085                47.9120                36.5271

                     37                     38                     39
                      A                      A                      A
 Frequencies --   1106.0111              1122.0729              1148.8682
 Red. masses --      2.3895                 6.1981                 1.3361
 Frc consts  --      1.7222                 4.5978                 1.0390
 IR Inten    --     37.2248               174.8918                 0.2284

                     40                     41                     42
                      A                      A                      A
 Frequencies --   1161.5491              1164.0486              1190.8326
 Red. masses --      1.2675                 1.2591                 2.0215
 Frc consts  --      1.0075                 1.0052                 1.6890
 IR Inten    --     21.5725                 8.4170                67.1056

                     43                     44                     45
                      A                      A                      A
 Frequencies --   1196.2992              1221.3519              1222.3465
 Red. masses --      1.6936                 2.3237                 1.6764
 Frc consts  --      1.4281                 2.0423                 1.4757
 IR Inten    --     17.9099                 3.8231                 2.9457

                     46                     47                     48
                      A                      A                      A
 Frequencies --   1251.6712              1277.8648              1356.9402
 Red. masses --      4.0998                 2.2279                10.1809
 Frc consts  --      3.7844                 2.1434                11.0447
 IR Inten    --    237.9539               116.5168                24.2712

                     49                     50                     51
                      A                      A                      A
 Frequencies --   1380.6083              1441.6041              1445.7727
 Red. masses --      3.2909                 1.3209                 1.6675
 Frc consts  --      3.6958                 1.6174                 2.0536
 IR Inten    --     38.4568                 0.2933               214.9361

                     52                     53                     54
                      A                      A                      A
 Frequencies --   1473.1431              1474.3667              1477.7005
 Red. masses --      1.7002                 1.9944                 1.2912
 Frc consts  --      2.1738                 2.5543                 1.6611
 IR Inten    --      3.5818                 3.5952                 4.6258

                     55                     56                     57
                      A                      A                      A
 Frequencies --   1479.9653              1514.6009              1514.8520
 Red. masses --      1.1043                 1.0632                 1.0501
 Frc consts  --      1.4251                 1.4370                 1.4198
 IR Inten    --      7.9196                 3.4922                 6.4699

                     58                     59                     60
                      A                      A                      A
 Frequencies --   1524.6641              1529.9676              1542.4370
 Red. masses --      6.8266                 5.8783                 5.3196
 Frc consts  --      9.3498                 8.1072                 7.4567
 IR Inten    --     96.4116               507.0740                 5.5082

                     61                     62                     63
                      A                      A                      A
 Frequencies --   1613.0955              1625.3731              2984.1652
 Red. masses --      8.4805                 5.9809                 1.0422
 Frc consts  --     13.0015                 9.3094                 5.4684
 IR Inten    --      5.6040                 8.9722               163.2094

                     64                     65                     66
                      A                      A                      A
 Frequencies --   2984.8697              3065.1729              3065.5277
 Red. masses --      1.0429                 1.0885                 1.0879
 Frc consts  --      5.4747                 6.0254                 6.0233
 IR Inten    --    105.6772                94.6409                58.7721

                     67                     68                     69
                      A                      A                      A
 Frequencies --   3101.1915              3101.5180              3132.1702
 Red. masses --      1.1059                 1.1059                 1.0846
 Frc consts  --      6.2665                 6.2676                 6.2690
 IR Inten    --     10.1325                32.7109                15.9181

                     70                     71                     72
                      A                      A                      A
 Frequencies --   3151.5237              3180.2164              3182.7234
 Red. masses --      1.0912                 1.0912                 1.0928
 Frc consts  --      6.3855                 6.5022                 6.5222
 IR Inten    --     50.6632                11.4672                26.1937

 - Thermochemistry -
 -------------------
 Temperature   298.150 Kelvin.  Pressure   1.00000 Atm.
 Atom     1 has atomic number  6 and mass  12.00000

 Molecular mass:   218.05791 amu.
 Principal axes and moments of inertia in atomic units:
                           1         2         3
     Eigenvalues --  2271.284863764.986435829.29289
           X            0.98916   0.00837   0.14660
           Y            0.03080   0.96434  -0.26287
           Z           -0.14358   0.26453   0.95363
 This molecule is an asymmetric top.
 Rotational symmetry number  1.
 Warning -- assumption of classical behavior for rotation
           may cause significant error
 Rotational temperatures (Kelvin)      0.03813     0.02301     0.01486
 Rotational constants (GHZ):           0.79459     0.47935     0.30960
 Zero-point vibrational energy     509061.5 (Joules/Mol)
                                  121.66863 (Kcal/Mol)
 Warning -- explicit consideration of  22 degrees of freedom as
           vibrations may cause significant error
 Vibrational temperatures:     92.81   107.91   112.44   117.01   204.86
          (Kelvin)            213.78   223.30   269.59   301.07   372.60
                              396.89   476.48   480.09   537.74   565.40
                              589.99   624.52   641.95   719.44   732.43
                              849.22   872.77   964.28  1027.90  1031.78
                             1047.19  1117.68  1120.51  1248.36  1298.76
                             1328.70  1395.55  1405.63  1407.67  1487.71
                             1523.08  1591.30  1614.41  1652.97  1671.21
                             1674.81  1713.34  1721.21  1757.25  1758.68
                             1800.88  1838.56  1952.33  1986.39  2074.15
                             2080.14  2119.52  2121.28  2126.08  2129.34
                             2179.17  2179.53  2193.65  2201.28  2219.22
                             2320.88  2338.55  4293.55  4294.56  4410.10
                             4410.61  4461.92  4462.39  4506.49  4534.34
                             4575.62  4579.23

 Zero-point correction=                           0.193891 (Hartree/Particle)
 Thermal correction to Energy=                    0.208106
 Thermal correction to Enthalpy=                  0.209050
 Thermal correction to Gibbs Free Energy=         0.152049
 Sum of electronic and zero-point Energies=           -764.241615
 Sum of electronic and thermal Energies=              -764.227400
 Sum of electronic and thermal Enthalpies=            -764.226456
 Sum of electronic and thermal Free Energies=         -764.283457

                     E (Thermal)             CV                S
                      KCal/Mol        Cal/Mol-Kelvin    Cal/Mol-Kelvin
 Total                  130.589             53.263            119.969
 Electronic               0.000              0.000              1.377
 Translational            0.889              2.981             42.042
 Rotational               0.889              2.981             32.278
 Vibrational            128.811             47.302             44.272
 Vibration     1          0.597              1.971              4.314
 Vibration     2          0.599              1.966              4.018
 Vibration     3          0.599              1.964              3.937
 Vibration     4          0.600              1.962              3.859
 Vibration     5          0.616              1.911              2.772
 Vibration     6          0.618              1.904              2.690
 Vibration     7          0.620              1.897              2.607
 Vibration     8          0.632              1.857              2.254
 Vibration     9          0.642              1.827              2.050
 Vibration    10          0.668              1.748              1.669
 Vibration    11          0.677              1.718              1.559
 Vibration    12          0.714              1.613              1.254
 Vibration    13          0.715              1.608              1.242
 Vibration    14          0.745              1.526              1.064
 Vibration    15          0.760              1.485              0.989
 Vibration    16          0.774              1.448              0.926
 Vibration    17          0.795              1.396              0.845
 Vibration    18          0.805              1.369              0.807
 Vibration    19          0.855              1.250              0.658
 Vibration    20          0.864              1.230              0.636
 Vibration    21          0.948              1.053              0.467
 Vibration    22          0.965              1.018              0.438

 Optimization completed on the basis of negligible forces.
    -- Stationary point found.
 Normal termination of Gaussian 16 at Sun Jan  7 21:14:51 2024.
