 Q-Chem 5.4, Q-Chem, Inc., Pleasanton, CA (2021)
 Q-Chem 5.4.0 for Intel X86 EM64T Linux

User input:
--------------------------------------------------------------
$molecule
-1 2
C                 -2.5944850000     -2.4921330000      0.4055760000
O                 -2.4129980000     -1.2866460000     -0.3339220000
C                 -1.1845300000     -0.6804450000     -0.1930100000
C                 -1.1493220000      0.6081870000      0.3249430000
O                 -2.3215050000      1.1399530000      0.8145570000
C                 -2.7792660000      2.3245420000      0.1663800000
C                  0.0736920000      1.3727590000      0.4416530000
O                  0.0992810000      2.5343560000      0.9315050000
C                  1.2923650000      0.7010960000     -0.0308470000
C                  2.5276310000      1.3745750000      0.0444860000
C                  3.6973700000      0.7698180000     -0.3798040000
C                  3.6630770000     -0.5408950000     -0.8960970000
C                  2.4599790000     -1.2192930000     -0.9758250000
C                  1.2585080000     -0.6214340000     -0.5466960000
C                 -0.0010070000     -1.3700750000     -0.6594670000
O                 -0.0450530000     -2.5320860000     -1.1470570000
H                 -1.8570180000     -3.2426060000      0.1140480000
H                 -2.5282970000     -2.2936020000      1.4835660000
H                 -3.6014620000     -2.8445880000      0.1703700000
H                 -2.0358010000      3.1207280000      0.2398380000
H                 -3.6960690000      2.6188830000      0.6825040000
H                 -3.0125620000      2.1188990000     -0.8867850000
H                  2.5235100000      2.3809090000      0.4476710000
H                  4.6410950000      1.3037650000     -0.3156210000
H                  4.5802790000     -1.0171010000     -1.2304720000
H                  2.4025880000     -2.2275670000     -1.3699960000
$end
$rem
MAX_SCF_CYCLES=200
BASIS  =  6-311++G(d,p)
GUI  =  2
JOB_TYPE  =  SP
METHOD  =  B3LYP
SOLVENT_METHOD = COSMO
$end
$solvent
dielectric 37.219
opticaldielectric 1.43
$end

--------------------------------------------------------------

             Standard Nuclear Orientation (Angstroms)
    I     Atom           X                Y                Z
 ----------------------------------------------------------------
    1      C      -2.7478078715    -2.3045288253     0.7162742522
    2      O      -2.4249821995    -1.3171841437    -0.2604180205
    3      C      -1.2113853835    -0.6881500377    -0.0931806657
    4      C      -1.2112223561     0.6885038667     0.0936651147
    5      O      -2.4246110566     1.3179250061     0.2610772529
    6      C      -2.7478590470     2.3039514928    -0.7167735331
    7      C       0.0053331156     1.4650454339     0.1982155346
    8      O      -0.0038976992     2.7116046636     0.3877471892
    9      C       1.2579410987     0.7045047456     0.0882045416
   10      C       2.4897499355     1.3826402987     0.1771442750
   11      C       3.6890940324     0.6985419592     0.0898198205
   12      C       3.6889175203    -0.6990994444    -0.0899064037
   13      C       2.4894074525    -1.3829061333    -0.1771371758
   14      C       1.2577680733    -0.7044781389    -0.0881453648
   15      C       0.0050325099    -1.4648118603    -0.1981677292
   16      O      -0.0043311216    -2.7113178320    -0.3881382722
   17      H      -1.9995997655    -3.0995722596     0.7283755838
   18      H      -2.8309868537    -1.8463845217     1.7107806139
   19      H      -3.7209597400    -2.7096127382     0.4291653317
   20      H      -1.9984710623     3.0978288057    -0.7317699029
   21      H      -3.7197561654     2.7111984078    -0.4284780424
   22      H      -2.8337599284     1.8440988392    -1.7102669451
   23      H       2.4587906839     2.4572179066     0.3171719000
   24      H       4.6298242281     1.2370806196     0.1593794510
   25      H       4.6295131826    -1.2378706851    -0.1595027699
   26      H       2.4581675552    -2.4574860705    -0.3170764146
 ----------------------------------------------------------------

    9    -764.4357272715      8.15e-06  Convergence criterion met
 Total energy in the final basis set =     -764.4357272715
    5    -764.5218810429      4.17e-06  Convergence criterion met
 Total energy in the final basis set =     -764.5218810429

                    Orbital Energies (a.u.)
 --------------------------------------------------------------

 Alpha MOs
 -- Occupied --
-19.1382 -19.1381 -19.0816 -19.0816 -10.2282 -10.2282 -10.2206 -10.2200
-10.2037 -10.2037 -10.1762 -10.1757 -10.1727 -10.1722 -10.1707 -10.1707
 -1.0642  -1.0449  -1.0037  -1.0012  -0.8602  -0.8044  -0.7521  -0.7472
 -0.7078  -0.6788  -0.6633  -0.6071  -0.6024  -0.5650  -0.5308  -0.5196
 -0.5004  -0.4698  -0.4691  -0.4641  -0.4459  -0.4422  -0.4353  -0.4230
 -0.4222  -0.4173  -0.4099  -0.3987  -0.3792  -0.3630  -0.3569  -0.3493
 -0.3449  -0.3407  -0.2951  -0.2904  -0.2694  -0.2588  -0.2443  -0.2437
 -0.2339  -0.1563

 Beta MOs
 -- Occupied --
-19.1379 -19.1379 -19.0757 -19.0757 -10.2263 -10.2263 -10.2193 -10.2188
-10.2037 -10.2036 -10.1756 -10.1752 -10.1724 -10.1719 -10.1706 -10.1706
 -1.0629  -1.0434  -0.9936  -0.9911  -0.8581  -0.8001  -0.7501  -0.7456
 -0.7049  -0.6772  -0.6564  -0.6060  -0.5993  -0.5623  -0.5292  -0.5177
 -0.4992  -0.4665  -0.4656  -0.4626  -0.4442  -0.4413  -0.4338  -0.4222
 -0.4203  -0.4110  -0.3991  -0.3944  -0.3618  -0.3563  -0.3529  -0.3479
 -0.3396  -0.3362  -0.2925  -0.2862  -0.2519  -0.2505  -0.2389  -0.2386
 -0.2259

          Ground-State Mulliken Net Atomic Charges

     Atom                 Charge (a.u.)    Spin (a.u.)
  --------------------------------------------------------
      1 C                    -0.287546       0.002774
      2 O                    -0.204678       0.001307
      3 C                     0.049216       0.106665
      4 C                     0.046411       0.106859
      5 O                    -0.204317       0.001288
      6 C                    -0.287418       0.002781
      7 C                    -0.587790       0.088737
      8 O                    -0.500891       0.218788
      9 C                     0.434789       0.021103
     10 C                     0.147127       0.035516
     11 C                    -0.424934       0.027810
     12 C                    -0.424722       0.027774
     13 C                     0.146893       0.035590
     14 C                     0.435444       0.021185
     15 C                    -0.587112       0.088702
     16 O                    -0.500936       0.218844
     17 H                     0.172438      -0.000249
     18 H                     0.148356       0.000928
     19 H                     0.170818       0.001019
     20 H                     0.172331      -0.000252
     21 H                     0.170827       0.001024
     22 H                     0.148310       0.000927
     23 H                     0.177028      -0.002178
     24 H                     0.206626      -0.002382
     25 H                     0.206681      -0.002379
     26 H                     0.177051      -0.002181
  --------------------------------------------------------
  Sum of atomic charges =    -1.000000

                    Cartesian Multipole Moments
 -----------------------------------------------------------------
    Charge (ESU x 10^10)
                -4.8032
    Dipole Moment (Debye)
         X       1.3116      Y      -0.0036      Z       0.0003
       Tot       1.3116
    Quadrupole Moments (Debye-Ang)
        XX     -94.0863     XY       0.0085     YY    -125.4049
        XZ       0.0048     YZ     -10.5685     ZZ     -99.0514

 Total job time:  67.03s(wall), 505.20s(cpu)
        *  Thank you very much for using Q-Chem.  Have a nice day.  *
