 Gaussian 16, Revision A.03,
 Gaussian 16:  ES64L-G16RevA.03 25-Dec-2016

 --------------------------------------
 #P UB3LYP/6-311++G(d,p) nosym opt freq
 --------------------------------------

 -------
 Radical
 -------
 Symbolic Z-matrix:
 Charge = -1 Multiplicity = 2

 SCF Done:  E(UB3LYP) =  -964.518299657     A.U. after   24 cycles
 Optimization completed.
    -- Stationary point found.
 Normal termination of Gaussian 16 at Thu Dec 28 00:00:08 2023.

 ----------------------------------------------------------------------
 #P Geom=AllCheck Guess=TCheck SCRF=Check GenChk UB3LYP/6-311++G(d,p) F
 req
 ----------------------------------------------------------------------

 Structure from the checkpoint file:  "287-rad.chk"
 -------
 Radical
 -------
 Charge = -1 Multiplicity = 2

                          Input orientation:
 ---------------------------------------------------------------------
 Center     Atomic      Atomic             Coordinates (Angstroms)
 Number     Number       Type             X           Y           Z
 ---------------------------------------------------------------------
      1          6           0       -0.322549    3.797800   -0.183592
      2          6           0       -1.526549    3.208028   -0.521021
      3          6           0       -1.556781    1.871509   -0.968220
      4          6           0        0.887971    3.077675   -0.280040
      5          6           0        0.859528    1.727027   -0.732168
      6          6           0       -0.377743    1.150855   -1.069065
      7          6           0        2.148137    3.695952    0.073483
      8          6           0        3.332446    2.879064   -0.058873
      9          6           0        3.340066    1.567895   -0.485754
     10          6           0        2.096363    0.926141   -0.853986
     11          8           0        2.287959    4.893563    0.488094
     12          8           0        2.058502   -0.265007   -1.259701
     13          1           0       -0.273654    4.823988    0.162947
     14          1           0       -2.450278    3.774104   -0.441977
     15          1           0       -2.502964    1.408960   -1.233053
     16          1           0       -0.371180    0.121931   -1.410734
     17          8           0        4.481646    3.528548    0.288614
     18          6           0        4.620719    0.781884   -0.598680
     19          6           0        5.233971    0.818509   -2.011915
     20          6           0        6.516348   -0.011843   -2.133168
     21          6           0        7.137349    0.014299   -3.534623
     22          6           0        8.419247   -0.817358   -3.660311
     23          1           0        4.142194    4.413791    0.548223
     24          1           0        4.404967   -0.260686   -0.343493
     25          1           0        5.352037    1.167522    0.119097
     26          1           0        5.444795    1.859907   -2.283440
     27          1           0        4.487803    0.447560   -2.722611
     28          1           0        6.298772   -1.051633   -1.854640
     29          1           0        7.254860    0.351052   -1.404956
     30          1           0        7.352734    1.054066   -3.814454
     31          1           0        6.398834   -0.348064   -4.261583
     32          1           0        8.203725   -1.856951   -3.379943
     33          1           0        9.158058   -0.454867   -2.933101
     34          6           0        9.038296   -0.791987   -5.062675
     35          1           0        9.254332    0.247400   -5.343167
     36          1           0        8.299291   -1.153752   -5.789644
     37          6           0       10.318964   -1.624781   -5.189030
     38          1           0       10.103624   -2.664678   -4.909342
     39          1           0       11.059060   -1.263664   -4.462442
     40          6           0       10.937935   -1.599657   -6.591294
     41          6           0       12.216717   -2.435095   -6.707216
     42          1           0       11.154248   -0.561184   -6.870988
     43          1           0       10.199339   -1.960964   -7.317459
     44          1           0       12.987084   -2.075839   -6.017003
     45          1           0       12.632678   -2.396073   -7.718576
     46          1           0       12.024939   -3.486038   -6.467160
 ---------------------------------------------------------------------

 SCF Done:  E(UB3LYP) =  -964.518299657     A.U. after    1 cycles

 Alpha  occ. eigenvalues --  -19.01757 -18.95533 -18.94233 -10.11291 -10.11068
 Alpha  occ. eigenvalues --  -10.10561 -10.09881 -10.09519 -10.09388 -10.09139
 Alpha  occ. eigenvalues --  -10.09081 -10.08009 -10.06814 -10.05764 -10.05587
 Alpha  occ. eigenvalues --  -10.05220 -10.05158 -10.05046 -10.04974 -10.04817
 Alpha  occ. eigenvalues --  -10.04425 -10.03712  -0.93678  -0.86746  -0.86500
 Alpha  occ. eigenvalues --   -0.74884  -0.73654  -0.71788  -0.69273  -0.67558
 Alpha  occ. eigenvalues --   -0.64742  -0.62981  -0.62010  -0.58820  -0.55569
 Alpha  occ. eigenvalues --   -0.53712  -0.52112  -0.50732  -0.49515  -0.48355
 Alpha  occ. eigenvalues --   -0.46319  -0.44592  -0.42305  -0.41444  -0.39367
 Alpha  occ. eigenvalues --   -0.38253  -0.37808  -0.36614  -0.35781  -0.35467
 Alpha  occ. eigenvalues --   -0.34087  -0.33320  -0.32973  -0.32639  -0.31224
 Alpha  occ. eigenvalues --   -0.30780  -0.30539  -0.29809  -0.29215  -0.28530
 Alpha  occ. eigenvalues --   -0.27838  -0.27724  -0.27033  -0.26769  -0.26142
 Alpha  occ. eigenvalues --   -0.26021  -0.25844  -0.25437  -0.24240  -0.24039
 Alpha  occ. eigenvalues --   -0.23422  -0.22349  -0.22195  -0.21811  -0.21111
 Alpha  occ. eigenvalues --   -0.20774  -0.14192  -0.13531  -0.12883  -0.10773
 Alpha  occ. eigenvalues --   -0.10335  -0.02203
 Alpha virt. eigenvalues --    0.03993   0.05985   0.06297   0.06406   0.08292
 Alpha virt. eigenvalues --    0.08419   0.08626   0.08920   0.09106   0.09556
 Alpha virt. eigenvalues --    0.10214   0.10322   0.10967   0.11223   0.11411

  Beta  occ. eigenvalues --  -19.01716 -18.94862 -18.93672 -10.11291 -10.11068
  Beta  occ. eigenvalues --  -10.10561 -10.09881 -10.09426 -10.09291 -10.09081
  Beta  occ. eigenvalues --  -10.08875 -10.08009 -10.06813 -10.05759 -10.05487
  Beta  occ. eigenvalues --  -10.05211 -10.05118 -10.05017 -10.05012 -10.04686
  Beta  occ. eigenvalues --  -10.04433 -10.03630  -0.93483  -0.85783  -0.85370
  Beta  occ. eigenvalues --   -0.74884  -0.73427  -0.71782  -0.69129  -0.67335
  Beta  occ. eigenvalues --   -0.64592  -0.62783  -0.61907  -0.58717  -0.55211
  Beta  occ. eigenvalues --   -0.53226  -0.52053  -0.50677  -0.49383  -0.48232
  Beta  occ. eigenvalues --   -0.46145  -0.44350  -0.42304  -0.41290  -0.39365
  Beta  occ. eigenvalues --   -0.38069  -0.37775  -0.36560  -0.35657  -0.35353
  Beta  occ. eigenvalues --   -0.33967  -0.33215  -0.32923  -0.32613  -0.31188
  Beta  occ. eigenvalues --   -0.30506  -0.30117  -0.29600  -0.28901  -0.28097
  Beta  occ. eigenvalues --   -0.27705  -0.27535  -0.26885  -0.26629  -0.25978
  Beta  occ. eigenvalues --   -0.25783  -0.25372  -0.25147  -0.24122  -0.23399
  Beta  occ. eigenvalues --   -0.23236  -0.22093  -0.21659  -0.20961  -0.20571
  Beta  occ. eigenvalues --   -0.19946  -0.12858  -0.12284  -0.12107  -0.10228
  Beta  occ. eigenvalues --   -0.09293
  Beta virt. eigenvalues --    0.03993   0.04357   0.05985   0.06297   0.06406
  Beta virt. eigenvalues --    0.08285   0.08420   0.08637   0.09099   0.09547
  Beta virt. eigenvalues --    0.09561   0.10208   0.10345   0.10976   0.11411

 Mulliken charges and spin densities:
               1          2
     1  C    0.002997   0.066051
     2  C   -0.304244   0.001458
     3  C   -0.378433   0.080037
     4  C    0.628363   0.011798
     5  C   -0.017674   0.078953
     6  C    0.066191  -0.008532
     7  C   -1.176549   0.140037
     8  C   -0.643466   0.059210
     9  C    2.218342   0.062193
    10  C   -0.892134   0.045832
    11  O   -0.451370   0.246451
    12  O   -0.362581   0.209951
    13  H    0.156000  -0.003797
    14  H    0.123598  -0.000778
    15  H    0.119993  -0.005985
    16  H    0.160602   0.000131
    17  O   -0.257692   0.014842
    18  C   -0.462878   0.012275
    19  C   -0.810760  -0.001760
    20  C   -0.218908   0.000950
    21  C    0.055328  -0.006620
    22  C    0.047628  -0.001594
    23  H    0.266092  -0.004344
    24  H    0.211673   0.002837
    25  H    0.213589  -0.000878
    26  H    0.154789   0.002746
    27  H    0.182131  -0.002116
    28  H    0.107329   0.000950
    29  H    0.096528  -0.000577
    30  H    0.115138   0.000035
    31  H    0.119000  -0.000055
    32  H    0.121761  -0.000016
    33  H    0.119421   0.000003
    34  C   -0.153380  -0.000057
    35  H    0.119138  -0.000007
    36  H    0.120348  -0.000006
    37  C   -0.362587   0.000341
    38  H    0.115909   0.000009
    39  H    0.115290  -0.000016
    40  C   -0.245709   0.000018
    41  C   -0.672207   0.000021
    42  H    0.125356  -0.000001
    43  H    0.126083   0.000000
    44  H    0.133040   0.000003
    45  H    0.135436   0.000012
    46  H    0.133479  -0.000004
 Sum of Mulliken charges =  -1.00000   1.00000

 Dipole moment (field-independent basis, Debye):
    X=            -11.3357    Y=            -10.1899    Z=              2.7391  Tot=             15.4866
 Quadrupole moment (field-independent basis, Debye-Ang):
   XX=           -191.4014   YY=           -189.6327   ZZ=           -151.1112
   XY=            -17.7649   XZ=             12.8994   YZ=             -5.0589

  Exact polarizability: 345.016 -31.978 266.230 -17.551  42.269 195.955
 Approx polarizability: 453.942   0.595 461.099  23.596  66.570 285.399

                      1                      2                      3
                      A                      A                      A
 Frequencies --     12.1150                22.8961                26.3629
 Red. masses --      5.4773                 5.0914                 1.8367
 Frc consts  --      0.0005                 0.0016                 0.0008
 IR Inten    --      0.1865                 0.2284                 0.1910

                      4                      5                      6
                      A                      A                      A
 Frequencies --     38.9642                55.8660                74.2095
 Red. masses --      2.7949                 4.6734                 2.1023
 Frc consts  --      0.0025                 0.0086                 0.0068
 IR Inten    --      0.5038                 1.9164                 0.1236

                      7                      8                      9
                      A                      A                      A
 Frequencies --     91.6677                95.6821               115.7047
 Red. masses --      6.6284                 2.0174                 4.9869
 Frc consts  --      0.0328                 0.0109                 0.0393
 IR Inten    --      4.8286                 0.2121                 0.3547

                     10                     11                     12
                      A                      A                      A
 Frequencies --    123.8347               143.7842               149.7691
 Red. masses --      1.9392                 4.1096                 2.0438
 Frc consts  --      0.0175                 0.0501                 0.0270
 IR Inten    --      0.0531                 0.6737                 0.0855

                     13                     14                     15
                      A                      A                      A
 Frequencies --    153.5474               160.8174               180.1570
 Red. masses --      5.8422                 1.9568                 7.1607
 Frc consts  --      0.0812                 0.0298                 0.1369
 IR Inten    --      0.0772                 0.0054                 1.2945

                     16                     17                     18
                      A                      A                      A
 Frequencies --    222.0851               244.2533               252.1591
 Red. masses --      4.0331                 1.1192                 4.4308
 Frc consts  --      0.1172                 0.0393                 0.1660
 IR Inten    --      0.0206                 0.0008                 2.2927

                     19                     20                     21
                      A                      A                      A
 Frequencies --    288.7468               298.0642               322.6345
 Red. masses --      3.9964                 2.8671                 4.7289
 Frc consts  --      0.1963                 0.1501                 0.2900
 IR Inten    --      0.2673                 2.2632                 1.9500

                     22                     23                     24
                      A                      A                      A
 Frequencies --    358.1942               371.1832               377.7413
 Red. masses --      5.5416                 3.6474                 9.9777
 Frc consts  --      0.4189                 0.2961                 0.8388
 IR Inten    --     13.4549                 0.1624                10.0831

                     25                     26                     27
                      A                      A                      A
 Frequencies --    422.0987               430.3733               449.9002
 Red. masses --      5.3251                 9.0921                 3.7027
 Frc consts  --      0.5590                 0.9922                 0.4416
 IR Inten    --      1.0443                 1.3962                 2.1318

                     28                     29                     30
                      A                      A                      A
 Frequencies --    455.0510               483.7746               496.5228
 Red. masses --      4.2964                 3.1596                 5.1681
 Frc consts  --      0.5242                 0.4357                 0.7507
 IR Inten    --      3.5515                 0.6272                 1.7220

                     31                     32                     33
                      A                      A                      A
 Frequencies --    533.4242               571.9899               645.6342
 Red. masses --      6.2186                 5.4923                 6.1776
 Frc consts  --      1.0425                 1.0587                 1.5172
 IR Inten    --      1.2015                 1.7359                17.9804

                     34                     35                     36
                      A                      A                      A
 Frequencies --    676.4871               699.4980               705.0903
 Red. masses --      5.7332                 3.1368                 3.2407
 Frc consts  --      1.5458                 0.9043                 0.9493
 IR Inten    --      3.2163                 1.9976                17.4398

                     37                     38                     39
                      A                      A                      A
 Frequencies --    712.4885               730.2858               732.4866
 Red. masses --      4.9388                 1.0609                 1.1105
 Frc consts  --      1.4772                 0.3333                 0.3511
 IR Inten    --      1.8105                 5.0093                 0.5316

                     40                     41                     42
                      A                      A                      A
 Frequencies --    734.5801               743.0674               761.5856
 Red. masses --      1.1216                 1.1965                 2.4334
 Frc consts  --      0.3566                 0.3893                 0.8316
 IR Inten    --    125.6406                 1.2144                 9.0035

                     43                     44                     45
                      A                      A                      A
 Frequencies --    770.4000               782.2879               816.5405
 Red. masses --      1.2608                 2.9504                 1.3878
 Frc consts  --      0.4409                 1.0638                 0.5452
 IR Inten    --      0.4382                 5.2554                 0.8763

                     46                     47                     48
                      A                      A                      A
 Frequencies --    862.0433               866.4466               893.7669
 Red. masses --      1.3915                 1.8601                 1.9837
 Frc consts  --      0.6093                 0.8228                 0.9336
 IR Inten    --      0.0663                12.2905                 2.4074

                     49                     50                     51
                      A                      A                      A
 Frequencies --    910.0638               945.1448               969.2898
 Red. masses --      1.6598                 5.8032                 1.3133
 Frc consts  --      0.8099                 3.0543                 0.7270
 IR Inten    --      5.9822                22.0030                 1.4053

                     52                     53                     54
                      A                      A                      A
 Frequencies --    971.0270               978.2087               989.2160
 Red. masses --      1.3775                 1.2956                 4.5570
 Frc consts  --      0.7653                 0.7305                 2.6273
 IR Inten    --      1.2603                 1.0653                 7.0952

                     55                     56                     57
                      A                      A                      A
 Frequencies --    996.8619              1023.1592              1032.1972
 Red. masses --      4.0719                 3.3245                 1.4143
 Frc consts  --      2.3841                 2.0505                 0.8878
 IR Inten    --      0.9859                10.6001                 1.1714

                     58                     59                     60
                      A                      A                      A
 Frequencies --   1038.0155              1051.6079              1060.0876
 Red. masses --      2.0876                 2.7096                 2.1333
 Frc consts  --      1.3253                 1.7655                 1.4125
 IR Inten    --     17.7903                 1.0925                25.4410

                     61                     62                     63
                      A                      A                      A
 Frequencies --   1061.9154              1064.3883              1072.8659
 Red. masses --      2.4585                 2.2085                 2.6972
 Frc consts  --      1.6334                 1.4742                 1.8292
 IR Inten    --      2.8660                 1.9420                 2.4998

                     64                     65                     66
                      A                      A                      A
 Frequencies --   1107.0623              1131.9693              1137.2929
 Red. masses --      2.0665                 1.8834                 2.6613
 Frc consts  --      1.4922                 1.4218                 2.0281
 IR Inten    --      4.9189                42.1524                 3.6600

                     67                     68                     69
                      A                      A                      A
 Frequencies --   1150.6691              1196.1518              1204.8430
 Red. masses --      1.3080                 2.5936                 2.2218
 Frc consts  --      1.0204                 2.1864                 1.9003
 IR Inten    --      0.6177                 9.4404                15.7701

                     70                     71                     72
                      A                      A                      A
 Frequencies --   1211.8710              1229.1074              1243.0997
 Red. masses --      1.8849                 1.2635                 1.8538
 Frc consts  --      1.6310                 1.1246                 1.6878
 IR Inten    --      9.8960                 0.2251                 0.8108

                     73                     74                     75
                      A                      A                      A
 Frequencies --   1256.1288              1271.0345              1283.7494
 Red. masses --      1.9968                 1.3112                 1.6953
 Frc consts  --      1.8563                 1.2481                 1.6462
 IR Inten    --     34.7975                 0.2834                27.2378

                     76                     77                     78
                      A                      A                      A
 Frequencies --   1291.9617              1312.1072              1316.8801
 Red. masses --      1.6454                 1.3588                 1.2437
 Frc consts  --      1.6182                 1.3783                 1.2708
 IR Inten    --      9.2451                 6.5182                 9.3477

                     79                     80                     81
                      A                      A                      A
 Frequencies --   1322.3694              1331.2616              1334.5940
 Red. masses --      1.0222                 1.0670                 1.1363
 Frc consts  --      1.0531                 1.1141                 1.1925
 IR Inten    --      0.3205                 6.6706                 5.3068

                     82                     83                     84
                      A                      A                      A
 Frequencies --   1338.3622              1341.4299              1350.5919
 Red. masses --      1.1117                 1.6882                 2.8296
 Frc consts  --      1.1732                 1.7899                 3.0411
 IR Inten    --      7.6331                28.2184                 5.5756

                     85                     86                     87
                      A                      A                      A
 Frequencies --   1356.0959              1374.1760              1385.9014
 Red. masses --      2.4003                 1.4884                 1.5332
 Frc consts  --      2.6008                 1.6559                 1.7351
 IR Inten    --     65.2936                 0.5966                 0.1275

                     88                     89                     90
                      A                      A                      A
 Frequencies --   1394.5179              1396.7055              1409.4505
 Red. masses --      1.5972                 1.5903                 1.2520
 Frc consts  --      1.8300                 1.8278                 1.4654
 IR Inten    --      0.0781                 1.6161                 2.0445

                     91                     92                     93
                      A                      A                      A
 Frequencies --   1436.3474              1461.1224              1465.4224
 Red. masses --      2.4131                 1.5113                 2.2218
 Frc consts  --      2.9332                 1.9010                 2.8111
 IR Inten    --    352.5918                52.3159                24.1191

                     94                     95                     96
                      A                      A                      A
 Frequencies --   1481.8636              1483.0230              1484.9647
 Red. masses --      1.1621                 1.0929                 1.3997
 Frc consts  --      1.5035                 1.4162                 1.8186
 IR Inten    --      9.9623                 2.5472                30.2096

                     97                     98                     99
                      A                      A                      A
 Frequencies --   1486.9168              1488.4464              1494.8372
 Red. masses --      1.4270                 1.0803                 1.0799
 Frc consts  --      1.8588                 1.4101                 1.4217
 IR Inten    --     34.1131                 0.9492                 0.1366

                    100                    101                    102
                      A                      A                      A
 Frequencies --   1498.5169              1502.0855              1508.9262
 Red. masses --      1.0400                 1.0863                 1.0929
 Frc consts  --      1.3760                 1.4441                 1.4661
 IR Inten    --      7.2293                 2.0175                 0.1540

                    103                    104                    105
                      A                      A                      A
 Frequencies --   1514.0104              1524.7647              1540.2070
 Red. masses --      1.0975                 5.6383                 5.8371
 Frc consts  --      1.4823                 7.7233                 8.1584
 IR Inten    --     11.6436               413.4874                69.1033

                    106                    107                    108
                      A                      A                      A
 Frequencies --   1578.1901              1621.6301              1639.8419
 Red. masses --      5.3955                 5.8282                 6.1905
 Frc consts  --      7.9177                 9.0300                 9.8080
 IR Inten    --     20.2623                13.6654                 8.5608

                    109                    110                    111
                      A                      A                      A
 Frequencies --   2983.0092              2986.1383              2988.7455
 Red. masses --      1.0580                 1.0572                 1.0575
 Frc consts  --      5.5469                 5.5541                 5.5656
 IR Inten    --      9.0809                 0.3203                 6.5174

                    112                    113                    114
                      A                      A                      A
 Frequencies --   2991.1931              2998.5229              3001.6257
 Red. masses --      1.0591                 1.0642                 1.0918
 Frc consts  --      5.5830                 5.6376                 5.7954
 IR Inten    --      0.1549                37.9321                 1.1686

                    115                    116                    117
                      A                      A                      A
 Frequencies --   3003.2790              3005.6091              3008.5169
 Red. masses --      1.0964                 1.0607                 1.0848
 Frc consts  --      5.8266                 5.6455                 5.7851
 IR Inten    --      0.7791               108.0665                19.0283

                    118                    119                    120
                      A                      A                      A
 Frequencies --   3011.5448              3012.5441              3021.6318
 Red. masses --      1.0780                 1.0353                 1.0777
 Frc consts  --      5.7605                 5.5361                 5.7973
 IR Inten    --     14.3175                58.6920                58.6184

                    121                    122                    123
                      A                      A                      A
 Frequencies --   3023.9942              3035.3703              3045.3890
 Red. masses --      1.0852                 1.1040                 1.1034
 Frc consts  --      5.8470                 5.9930                 6.0291
 IR Inten    --     44.8289                 2.9879                58.8838

                    124                    125                    126
                      A                      A                      A
 Frequencies --   3049.8353              3070.7041              3073.4564
 Red. masses --      1.1033                 1.1059                 1.1024
 Frc consts  --      6.0466                 6.1439                 6.1354
 IR Inten    --     83.0269                45.2473                85.7266

                    127                    128                    129
                      A                      A                      A
 Frequencies --   3074.0632              3132.9284              3152.1985
 Red. masses --      1.1009                 1.0845                 1.0909
 Frc consts  --      6.1296                 6.2719                 6.3864
 IR Inten    --     55.3464                15.6432                49.2227

                    130                    131                    132
                      A                      A                      A
 Frequencies --   3179.0723              3182.0124              3481.0259
 Red. masses --      1.0915                 1.0929                 1.0635
 Frc consts  --      6.4996                 6.5199                 7.5929
 IR Inten    --     14.3945                26.3378               106.2597

 - Thermochemistry -
 -------------------
 Temperature   298.150 Kelvin.  Pressure   1.00000 Atm.
 Atom     1 has atomic number  6 and mass  12.00000

 Molecular mass:   300.17254 amu.
 Principal axes and moments of inertia in atomic units:
                           1         2         3
     Eigenvalues --  2544.86331********************
           X            0.82388   0.54804   0.14445
           Y           -0.36439   0.70742  -0.60562
           Z           -0.43409   0.44633   0.78253
 This molecule is an asymmetric top.
 Rotational symmetry number  1.
 Warning -- assumption of classical behavior for rotation
           may cause significant error
 Rotational temperatures (Kelvin)      0.03403     0.00343     0.00324
 Rotational constants (GHZ):           0.70917     0.07147     0.06753
 Zero-point vibrational energy    1021151.6 (Joules/Mol)
                                  244.06110 (Kcal/Mol)
 Warning -- explicit consideration of  32 degrees of freedom as
           vibrations may cause significant error
 Vibrational temperatures:     17.43    32.94    37.93    56.06    80.38
          (Kelvin)            106.77   131.89   137.67   166.47   178.17
                              206.87   215.48   220.92   231.38   259.21
                              319.53   351.43   362.80   415.44   428.85
                              464.20   515.36   534.05   543.49   607.31
                              619.21   647.31   654.72   696.04   714.39
                              767.48   822.97   928.92   973.31  1006.42
                             1014.47  1025.11  1050.72  1053.88  1056.90
                             1069.11  1095.75  1108.43  1125.54  1174.82
                             1240.29  1246.62  1285.93  1309.38  1359.85
                             1394.59  1397.09  1407.42  1423.26  1434.26
                             1472.10  1485.10  1493.47  1513.03  1525.23
                             1527.86  1531.42  1543.61  1592.82  1628.65
                             1636.31  1655.56  1721.00  1733.50  1743.61
                             1768.41  1788.54  1807.29  1828.74  1847.03
                             1858.84  1887.83  1894.70  1902.59  1915.39
                             1920.18  1925.60  1930.02  1943.20  1951.12
                             1977.13  1994.00  2006.40  2009.55  2027.88
                             2066.58  2102.23  2108.42  2132.07  2133.74
                             2136.53  2139.34  2141.54  2150.74  2156.03
                             2161.17  2171.01  2178.32  2193.80  2216.01
                             2270.66  2333.16  2359.37  4291.88  4296.39
                             4300.14  4303.66  4314.21  4318.67  4321.05
                             4324.40  4328.58  4332.94  4334.38  4347.45
                             4350.85  4367.22  4381.64  4388.03  4418.06
                             4422.02  4422.89  4507.59  4535.31  4573.98
                             4578.21  5008.42

 Zero-point correction=                           0.388936 (Hartree/Particle)
 Thermal correction to Energy=                    0.411149
 Thermal correction to Enthalpy=                  0.412093
 Thermal correction to Gibbs Free Energy=         0.333413
 Sum of electronic and zero-point Energies=           -964.129364
 Sum of electronic and thermal Energies=              -964.107151
 Sum of electronic and thermal Enthalpies=            -964.106206
 Sum of electronic and thermal Free Energies=         -964.184887

                     E (Thermal)             CV                S
                      KCal/Mol        Cal/Mol-Kelvin    Cal/Mol-Kelvin
 Total                  258.000             83.239            165.597
 Electronic               0.000              0.000              1.377
 Translational            0.889              2.981             42.994
 Rotational               0.889              2.981             35.795
 Vibrational            256.222             77.277             85.430
 Vibration     1          0.593              1.987              7.630
 Vibration     2          0.593              1.985              6.366
 Vibration     3          0.593              1.985              6.086
 Vibration     4          0.594              1.981              5.311
 Vibration     5          0.596              1.975              4.598
 Vibration     6          0.599              1.966              4.038
 Vibration     7          0.602              1.955              3.624
 Vibration     8          0.603              1.952              3.540
 Vibration     9          0.608              1.936              3.171
 Vibration    10          0.610              1.929              3.040
 Vibration    11          0.616              1.909              2.753
 Vibration    12          0.618              1.903              2.675
 Vibration    13          0.619              1.899              2.628
 Vibration    14          0.622              1.890              2.540
 Vibration    15          0.629              1.867              2.327
 Vibration    16          0.648              1.807              1.942
 Vibration    17          0.660              1.772              1.772
 Vibration    18          0.664              1.759              1.715
 Vibration    19          0.685              1.695              1.481
 Vibration    20          0.691              1.677              1.428
 Vibration    21          0.708              1.630              1.297
 Vibration    22          0.733              1.558              1.130
 Vibration    23          0.743              1.531              1.075
 Vibration    24          0.748              1.518              1.048
 Vibration    25          0.784              1.422              0.885
 Vibration    26          0.792              1.404              0.857
 Vibration    27          0.809              1.361              0.796
 Vibration    28          0.813              1.350              0.781
 Vibration    29          0.840              1.286              0.700
 Vibration    30          0.852              1.258              0.667
 Vibration    31          0.888              1.176              0.580
 Vibration    32          0.928              1.092              0.500

 Optimization completed.
    -- Stationary point found.
 Normal termination of Gaussian 16 at Thu Dec 28 03:06:20 2023.
