 Gaussian 16, Revision A.03,
 Gaussian 16:  ES64L-G16RevA.03 25-Dec-2016

 --------------------------------------
 #P UB3LYP/6-311++G(d,p) nosym opt freq
 --------------------------------------

 -------
 Reduced
 -------
 Symbolic Z-matrix:
 Charge = -2 Multiplicity = 1

 SCF Done:  E(UB3LYP) =  -2015.40563696     A.U. after   24 cycles
 Optimization completed.
    -- Stationary point found.
 Normal termination of Gaussian 16 at Sun Jan  7 06:59:15 2024.

 ----------------------------------------------------------------------
 #P Geom=AllCheck Guess=TCheck SCRF=Check GenChk UB3LYP/6-311++G(d,p) F
 req
 ----------------------------------------------------------------------

 Structure from the checkpoint file:  "217-an.chk"
 -------
 Reduced
 -------
 Charge = -2 Multiplicity = 1

                          Input orientation:
 ---------------------------------------------------------------------
 Center     Atomic      Atomic             Coordinates (Angstroms)
 Number     Number       Type             X           Y           Z
 ---------------------------------------------------------------------
      1          6           0        4.978158   -2.029106    0.519170
      2          6           0        5.740203   -1.322557   -0.412179
      3          6           0        5.107929   -0.612677   -1.483993
      4          6           0        3.584874   -2.040539    0.443376
      5          6           0        2.921196   -1.325018   -0.628533
      6          6           0        3.741306   -0.626486   -1.563173
      7          6           0        2.838029   -2.787177    1.461916
      8          6           0        1.381642   -2.752574    1.287776
      9          6           0        0.752437   -2.025978    0.202553
     10          6           0        1.489259   -1.287743   -0.792808
     11          6           0        0.588590   -3.447466    2.201678
     12          6           0       -0.671602   -2.053005    0.127926
     13          6           0       -1.447836   -2.731722    1.028426
     14          8           0        3.397821   -3.406679    2.400109
     15          8           0        0.917797   -0.651491   -1.747590
     16          1           0        5.446256   -2.575516    1.329287
     17         16           0        7.465108   -1.391341   -0.340754
     18          1           0       -2.528874   -2.729499    0.963554
     19          1           0        3.220622   -0.092851   -2.350777
     20          1           0        1.086993   -3.983830    3.000351
     21          1           0       -1.118248   -1.495676   -0.688219
     22          6           0       -0.802820   -3.437059    2.095682
     23         16           0       -1.755197   -4.370077    3.194478
     24          8           0       -1.060238   -4.676458    4.451689
     25          8           0       -3.141982   -3.881162    3.274991
     26          8           0       -1.871940   -5.862745    2.375924
     27          6           0       -2.634998   -6.860959    3.052295
     28          1           0       -2.192290   -7.102992    4.024292
     29          1           0       -2.609850   -7.744513    2.410142
     30          1           0       -3.672549   -6.537667    3.190478
     31          1           0        5.713706   -0.064800   -2.195151
     32          8           0        7.978425   -1.758555    0.985514
     33          8           0        8.091617   -0.251074   -1.030701
     34          8           0        7.802720   -2.735108   -1.336209
     35          6           0        9.189015   -3.037363   -1.488455
     36          1           0        9.648004   -3.275151   -0.522984
     37          1           0        9.725021   -2.204100   -1.955845
     38          1           0        9.235485   -3.913296   -2.139768
 ---------------------------------------------------------------------

 SCF Done:  E(UB3LYP) =  -2015.40563696     A.U. after    2 cycles

 Alpha  occ. eigenvalues --  -88.88203 -88.88198 -18.97711 -18.97703 -18.93470
 Alpha  occ. eigenvalues --  -18.93468 -18.93468 -18.93465 -18.85030 -18.81097
 Alpha  occ. eigenvalues --  -10.06437 -10.06430 -10.01079 -10.00161 -10.00160
 Alpha  occ. eigenvalues --   -9.98318  -9.98317  -9.97868  -9.97777  -9.97776
 Alpha  occ. eigenvalues --   -9.96202  -9.96201  -9.96021  -9.96020  -9.95257
 Alpha  occ. eigenvalues --   -9.95255  -7.94330  -7.94326  -5.90697  -5.90693
 Alpha  occ. eigenvalues --   -5.90558  -5.90554  -5.90344  -5.90340  -0.94703
 Alpha  occ. eigenvalues --   -0.94695  -0.84687  -0.84679  -0.82243  -0.82241
 Alpha  occ. eigenvalues --   -0.77652  -0.73314  -0.65891  -0.65663  -0.59557
 Alpha  occ. eigenvalues --   -0.57878  -0.55780  -0.54780  -0.54328  -0.53291
 Alpha  occ. eigenvalues --   -0.48555  -0.46132  -0.45029  -0.41354  -0.40349
 Alpha  occ. eigenvalues --   -0.38590  -0.36670  -0.35684  -0.34451  -0.32685
 Alpha  occ. eigenvalues --   -0.32483  -0.30634  -0.30314  -0.30065  -0.29497
 Alpha  occ. eigenvalues --   -0.28049  -0.27605  -0.27354  -0.26865  -0.25286
 Alpha  occ. eigenvalues --   -0.24919  -0.22585  -0.22405  -0.22238  -0.22089
 Alpha  occ. eigenvalues --   -0.20968  -0.20700  -0.19783  -0.19312  -0.16926
 Alpha  occ. eigenvalues --   -0.16347  -0.16322  -0.15977  -0.15951  -0.15500
 Alpha  occ. eigenvalues --   -0.14874  -0.14429  -0.13900  -0.13728  -0.13261
 Alpha  occ. eigenvalues --   -0.13211  -0.12768  -0.11913  -0.11425  -0.10668
 Alpha  occ. eigenvalues --   -0.10663  -0.05779  -0.04838  -0.04321  -0.03471
 Alpha  occ. eigenvalues --   -0.01971   0.00883   0.08153
 Alpha virt. eigenvalues --    0.12310   0.12419   0.14555   0.14704   0.16116
 Alpha virt. eigenvalues --    0.16119   0.16428   0.16483   0.17080   0.17279
 Alpha virt. eigenvalues --    0.18518   0.18980   0.20110   0.20119   0.20418

  Beta  occ. eigenvalues --  -88.88203 -88.88198 -18.97711 -18.97703 -18.93470
  Beta  occ. eigenvalues --  -18.93468 -18.93468 -18.93465 -18.85030 -18.81097
  Beta  occ. eigenvalues --  -10.06437 -10.06430 -10.01079 -10.00161 -10.00160
  Beta  occ. eigenvalues --   -9.98318  -9.98317  -9.97868  -9.97777  -9.97776
  Beta  occ. eigenvalues --   -9.96202  -9.96201  -9.96021  -9.96020  -9.95257
  Beta  occ. eigenvalues --   -9.95255  -7.94330  -7.94326  -5.90697  -5.90693
  Beta  occ. eigenvalues --   -5.90558  -5.90554  -5.90344  -5.90340  -0.94703
  Beta  occ. eigenvalues --   -0.94695  -0.84687  -0.84679  -0.82243  -0.82241
  Beta  occ. eigenvalues --   -0.77652  -0.73314  -0.65891  -0.65663  -0.59557
  Beta  occ. eigenvalues --   -0.57878  -0.55780  -0.54780  -0.54328  -0.53291
  Beta  occ. eigenvalues --   -0.48555  -0.46132  -0.45029  -0.41354  -0.40349
  Beta  occ. eigenvalues --   -0.38590  -0.36670  -0.35684  -0.34451  -0.32685
  Beta  occ. eigenvalues --   -0.32483  -0.30634  -0.30314  -0.30065  -0.29497
  Beta  occ. eigenvalues --   -0.28049  -0.27605  -0.27354  -0.26865  -0.25286
  Beta  occ. eigenvalues --   -0.24919  -0.22585  -0.22405  -0.22238  -0.22089
  Beta  occ. eigenvalues --   -0.20968  -0.20700  -0.19783  -0.19312  -0.16926
  Beta  occ. eigenvalues --   -0.16347  -0.16322  -0.15977  -0.15951  -0.15500
  Beta  occ. eigenvalues --   -0.14874  -0.14429  -0.13900  -0.13728  -0.13261
  Beta  occ. eigenvalues --   -0.13211  -0.12768  -0.11913  -0.11425  -0.10668
  Beta  occ. eigenvalues --   -0.10663  -0.05779  -0.04838  -0.04321  -0.03471
  Beta  occ. eigenvalues --   -0.01971   0.00883   0.08153
  Beta virt. eigenvalues --    0.12310   0.12419   0.14555   0.14704   0.16116
  Beta virt. eigenvalues --    0.16119   0.16428   0.16483   0.17080   0.17279
  Beta virt. eigenvalues --    0.18518   0.18980   0.20110   0.20119   0.20418

 Mulliken charges and spin densities:
               1          2
     1  C    0.012185   0.000000
     2  C   -0.977087  -0.000000
     3  C   -0.334353  -0.000000
     4  C    0.279435   0.000000
     5  C    0.939859   0.000000
     6  C   -0.216542   0.000000
     7  C   -1.109258  -0.000000
     8  C    0.278426   0.000000
     9  C    0.938659  -0.000000
    10  C   -0.493826  -0.000000
    11  C    0.010615  -0.000000
    12  C   -0.216368  -0.000000
    13  C   -0.333073   0.000000
    14  O   -0.379633   0.000000
    15  O   -0.487040   0.000000
    16  H    0.224212  -0.000000
    17  S    0.255597   0.000000
    18  H    0.178380  -0.000000
    19  H    0.145975   0.000000
    20  H    0.224162   0.000000
    21  H    0.145960   0.000000
    22  C   -0.977525  -0.000000
    23  S    0.257011  -0.000000
    24  O   -0.224190   0.000000
    25  O   -0.243233   0.000000
    26  O   -0.078496   0.000000
    27  C   -0.108661   0.000000
    28  H    0.136497   0.000000
    29  H    0.117544   0.000000
    30  H    0.128190  -0.000000
    31  H    0.178281   0.000000
    32  O   -0.223619   0.000000
    33  O   -0.243734   0.000000
    34  O   -0.078143   0.000000
    35  C   -0.108456   0.000000
    36  H    0.136494   0.000000
    37  H    0.128222  -0.000000
    38  H    0.117534   0.000000
 Sum of Mulliken charges =  -2.00000   0.00000

 Dipole moment (field-independent basis, Debye):
    X=            -23.0164    Y=             20.6461    Z=             -8.1514  Tot=             31.9760
 Quadrupole moment (field-independent basis, Debye-Ang):
   XX=           -361.6680   YY=           -242.7722   ZZ=           -234.9311
   XY=             20.5436   XZ=              7.6608   YZ=             49.8750

  Exact polarizability: 894.904 174.050 345.091-227.560-130.009 335.892
 Approx polarizability:1502.326 301.479 522.101-366.233-239.986 583.005

                      1                      2                      3
                      A                      A                      A
 Frequencies --     19.2653                22.6977                31.1216
 Red. masses --      5.7640                 5.2250                 5.2589
 Frc consts  --      0.0013                 0.0016                 0.0030
 IR Inten    --      1.7667                 0.3726                 2.6979

                      4                      5                      6
                      A                      A                      A
 Frequencies --     46.4845                59.1221                61.9200
 Red. masses --      4.8799                 4.2237                 3.2477
 Frc consts  --      0.0062                 0.0087                 0.0073
 IR Inten    --      1.0330                 0.8097                 0.0417

                      7                      8                      9
                      A                      A                      A
 Frequencies --     74.4288                82.7807               118.6013
 Red. masses --      6.7940                 6.9267                 4.5826
 Frc consts  --      0.0222                 0.0280                 0.0380
 IR Inten    --      3.0748                 1.5694                 0.7852

                     10                     11                     12
                      A                      A                      A
 Frequencies --    133.1135               134.1995               144.8407
 Red. masses --      4.4513                 3.2165                 1.2899
 Frc consts  --      0.0465                 0.0341                 0.0159
 IR Inten    --      5.8233                 1.7399                 1.9051

                     13                     14                     15
                      A                      A                      A
 Frequencies --    148.7999               164.6065               191.8950
 Red. masses --      1.4131                 7.4705                10.6940
 Frc consts  --      0.0184                 0.1193                 0.2320
 IR Inten    --      0.6156                 5.3795                 1.1399

                     16                     17                     18
                      A                      A                      A
 Frequencies --    201.2496               226.9898               244.1490
 Red. masses --      5.3807                 9.9873                 5.0916
 Frc consts  --      0.1284                 0.3032                 0.1788
 IR Inten    --     25.2538                 4.7010                 4.7936

                     19                     20                     21
                      A                      A                      A
 Frequencies --    254.5412               267.6743               273.5327
 Red. masses --      8.4596                 6.4935                 9.7027
 Frc consts  --      0.3229                 0.2741                 0.4277
 IR Inten    --      4.5760                23.9066                 2.1462

                     22                     23                     24
                      A                      A                      A
 Frequencies --    316.5480               330.2252               369.1322
 Red. masses --      5.5771                 5.8665                 7.6436
 Frc consts  --      0.3293                 0.3769                 0.6136
 IR Inten    --      0.7626               143.7608                16.6187

                     25                     26                     27
                      A                      A                      A
 Frequencies --    370.1043               379.9407               409.5777
 Red. masses --      7.4508                10.5834                 5.3171
 Frc consts  --      0.6013                 0.9001                 0.5255
 IR Inten    --      4.1431                57.1606                 2.8933

                     28                     29                     30
                      A                      A                      A
 Frequencies --    436.8145               441.9006               449.4614
 Red. masses --      6.3119                 5.8074                11.1151
 Frc consts  --      0.7096                 0.6682                 1.3230
 IR Inten    --      6.3445                 0.7042               114.5578

                     31                     32                     33
                      A                      A                      A
 Frequencies --    462.1298               465.5730               470.5740
 Red. masses --      3.4297                10.9405                 8.7906
 Frc consts  --      0.4315                 1.3972                 1.1469
 IR Inten    --    147.9692                 1.4688                 0.9449

                     34                     35                     36
                      A                      A                      A
 Frequencies --    474.2690               493.6937               502.9760
 Red. masses --      9.7439                 7.3331                 8.7595
 Frc consts  --      1.2913                 1.0531                 1.3056
 IR Inten    --      4.7540                13.4301                 5.7797

                     37                     38                     39
                      A                      A                      A
 Frequencies --    508.7733               577.4889               588.2844
 Red. masses --      5.6643                 9.3018                10.5740
 Frc consts  --      0.8639                 1.8277                 2.1561
 IR Inten    --    331.1776               236.6464               401.2533

                     40                     41                     42
                      A                      A                      A
 Frequencies --    601.8139               608.7971               625.0567
 Red. masses --     10.6617                 8.4636                 5.4281
 Frc consts  --      2.2751                 1.8482                 1.2495
 IR Inten    --   1022.9800                86.8780               150.4151

                     43                     44                     45
                      A                      A                      A
 Frequencies --    653.2132               691.0381               695.5492
 Red. masses --      7.7567                 7.9893                 7.0553
 Frc consts  --      1.9500                 2.2478                 2.0110
 IR Inten    --    166.5622                27.0694                 3.3095

                     46                     47                     48
                      A                      A                      A
 Frequencies --    706.8368               721.7390               730.3057
 Red. masses --      4.5692                 3.2270                 8.2516
 Frc consts  --      1.3450                 0.9904                 2.5930
 IR Inten    --     39.9030                24.3564               355.5396

                     49                     50                     51
                      A                      A                      A
 Frequencies --    786.2895               795.7173               822.0099
 Red. masses --      2.1941                 1.4460                 3.6484
 Frc consts  --      0.7992                 0.5394                 1.4525
 IR Inten    --     10.0998                11.2280                18.9886

                     52                     53                     54
                      A                      A                      A
 Frequencies --    849.5055               925.4607               953.8805
 Red. masses --      7.2004                 6.5471                 1.3508
 Frc consts  --      3.0616                 3.3038                 0.7241
 IR Inten    --     14.3751                 9.3245                 7.1557

                     55                     56                     57
                      A                      A                      A
 Frequencies --    962.3685               982.8147               985.1291
 Red. masses --      1.4278                 3.6416                 1.4453
 Frc consts  --      0.7791                 2.0725                 0.8264
 IR Inten    --      5.9931                67.2955                 9.7805

                     58                     59                     60
                      A                      A                      A
 Frequencies --    987.2582              1001.1535              1004.5678
 Red. masses --      1.2984                 5.4116                 7.8701
 Frc consts  --      0.7456                 3.1958                 4.6794
 IR Inten    --      3.4638               955.4412                94.1099

                     61                     62                     63
                      A                      A                      A
 Frequencies --   1043.3354              1045.7009              1069.3184
 Red. masses --      3.1016                 2.6084                 7.6439
 Frc consts  --      1.9892                 1.6805                 5.1497
 IR Inten    --    369.9563                 2.7891              2699.4858

                     64                     65                     66
                      A                      A                      A
 Frequencies --   1075.4627              1121.4634              1127.3102
 Red. masses --      8.2045                 2.3515                 1.6589
 Frc consts  --      5.5911                 1.7425                 1.2421
 IR Inten    --    187.2062                50.0937                61.0100

                     67                     68                     69
                      A                      A                      A
 Frequencies --   1165.4180              1165.5056              1165.7668
 Red. masses --      1.2886                 1.2951                 2.3791
 Frc consts  --      1.0311                 1.0365                 1.9050
 IR Inten    --      1.5003                 1.6046                 7.0040

                     70                     71                     72
                      A                      A                      A
 Frequencies --   1171.4039              1176.7411              1178.9687
 Red. masses --      2.8027                 1.3532                 1.8313
 Frc consts  --      2.2659                 1.1040                 1.4998
 IR Inten    --    484.1678                 4.5500                 7.6939

                     73                     74                     75
                      A                      A                      A
 Frequencies --   1203.8518              1226.7274              1240.6883
 Red. masses --      3.0339                 1.5980                 3.3529
 Frc consts  --      2.5905                 1.4168                 3.0408
 IR Inten    --      2.5155                81.2768               355.0889

                     76                     77                     78
                      A                      A                      A
 Frequencies --   1244.4231              1247.3745              1325.5444
 Red. masses --     15.2682                 2.6860                 2.3030
 Frc consts  --     13.9307                 2.4623                 2.3841
 IR Inten    --     51.0250                13.1829               245.7639

                     79                     80                     81
                      A                      A                      A
 Frequencies --   1345.8252              1364.3765              1403.1037
 Red. masses --      4.7321                 5.6536                 5.4224
 Frc consts  --      5.0499                 6.2008                 6.2895
 IR Inten    --     80.3782               126.8564               213.7841

                     82                     83                     84
                      A                      A                      A
 Frequencies --   1445.6808              1445.8196              1446.8596
 Red. masses --      1.1597                 1.1933                 6.8086
 Frc consts  --      1.4281                 1.4697                 8.3977
 IR Inten    --     44.1696                19.1689               482.7836

                     85                     86                     87
                      A                      A                      A
 Frequencies --   1453.0069              1453.2984              1469.8290
 Red. masses --      2.6717                 2.2981                 7.9308
 Frc consts  --      3.3233                 2.8598                10.0949
 IR Inten    --     65.3646                 9.2449               113.4503

                     88                     89                     90
                      A                      A                      A
 Frequencies --   1476.2692              1476.5755              1500.2549
 Red. masses --      1.0594                 1.0604                 5.7096
 Frc consts  --      1.3603                 1.3622                 7.5716
 IR Inten    --      3.5076                 3.9697                39.5554

                     91                     92                     93
                      A                      A                      A
 Frequencies --   1506.9750              1507.0175              1520.1285
 Red. masses --      1.0509                 1.0509                 7.6453
 Frc consts  --      1.4062                 1.4062                10.4089
 IR Inten    --      4.3074                 3.8912                13.8823

                     94                     95                     96
                      A                      A                      A
 Frequencies --   1546.5962              1582.5008              1625.1475
 Red. masses --      8.3342                 5.8999                 8.4329
 Frc consts  --     11.7454                 8.7053                13.1225
 IR Inten    --    399.0866               907.9095                29.3436

                     97                     98                     99
                      A                      A                      A
 Frequencies --   2998.4869              2998.9771              3062.3568
 Red. masses --      1.0286                 1.0287                 1.1058
 Frc consts  --      5.4488                 5.4511                 6.1100
 IR Inten    --    404.9737                96.5982                27.5223

                    100                    101                    102
                      A                      A                      A
 Frequencies --   3062.5109              3085.5304              3085.8232
 Red. masses --      1.1058                 1.1038                 1.1037
 Frc consts  --      6.1108                 6.1915                 6.1920
 IR Inten    --     31.9828                85.0467               115.6379

                    103                    104                    105
                      A                      A                      A
 Frequencies --   3169.2961              3169.4980              3189.3583
 Red. masses --      1.0860                 1.0860                 1.0935
 Frc consts  --      6.4267                 6.4275                 6.5536
 IR Inten    --     11.0724                 0.4832                11.1689

                    106                    107                    108
                      A                      A                      A
 Frequencies --   3189.5828              3193.5676              3194.0316
 Red. masses --      1.0935                 1.0895                 1.0897
 Frc consts  --      6.5543                 6.5467                 6.5498
 IR Inten    --     22.9978                 0.1508                 2.5653

 - Thermochemistry -
 -------------------
 Temperature   298.150 Kelvin.  Pressure   1.00000 Atm.
 Atom     1 has atomic number  6 and mass  12.00000

 Molecular mass:   395.99736 amu.
 Principal axes and moments of inertia in atomic units:
                           1         2         3
     Eigenvalues --  4000.15418********************
           X            0.89388  -0.44690   0.03551
           Y            0.28887   0.63473   0.71671
           Z           -0.34284  -0.63039   0.69646
 This molecule is an asymmetric top.
 Rotational symmetry number  1.
 Warning -- assumption of classical behavior for rotation
           may cause significant error
 Rotational temperatures (Kelvin)      0.02165     0.00330     0.00302
 Rotational constants (GHZ):           0.45117     0.06884     0.06283
 Zero-point vibrational energy     675909.7 (Joules/Mol)
                                  161.54629 (Kcal/Mol)
 Warning -- explicit consideration of  41 degrees of freedom as
           vibrations may cause significant error
 Vibrational temperatures:     27.72    32.66    44.78    66.88    85.06
          (Kelvin)             89.09   107.09   119.10   170.64   191.52
                              193.08   208.39   214.09   236.83   276.09
                              289.55   326.59   351.28   366.23   385.12
                              393.55   455.44   475.12   531.10   532.50
                              546.65   589.29   628.48   635.80   646.67
                              664.90   669.86   677.05   682.37   710.32
                              723.67   732.01   830.88   846.41   865.88
                              875.92   899.32   939.83   994.25  1000.74
                             1016.98  1038.42  1050.75  1131.30  1144.86
                             1182.69  1222.25  1331.53  1372.42  1384.63
                             1414.05  1417.38  1420.44  1440.44  1445.35
                             1501.13  1504.53  1538.51  1547.35  1613.54
                             1621.95  1676.78  1676.90  1677.28  1685.39
                             1693.07  1696.27  1732.07  1764.99  1785.07
                             1790.45  1794.69  1907.16  1936.34  1963.03
                             2018.75  2080.01  2080.21  2081.71  2090.55
                             2090.97  2114.76  2124.02  2124.46  2158.53
                             2168.20  2168.26  2187.13  2225.21  2276.87
                             2338.22  4314.15  4314.86  4406.05  4406.27
                             4439.39  4439.81  4559.91  4560.20  4588.78
                             4589.10  4594.83  4595.50

 Zero-point correction=                           0.257440 (Hartree/Particle)
 Thermal correction to Energy=                    0.281600
 Thermal correction to Enthalpy=                  0.282544
 Thermal correction to Gibbs Free Energy=         0.201105
 Sum of electronic and zero-point Energies=          -2015.148197
 Sum of electronic and thermal Energies=             -2015.124037
 Sum of electronic and thermal Enthalpies=           -2015.123093
 Sum of electronic and thermal Free Energies=        -2015.204532

                     E (Thermal)             CV                S
                      KCal/Mol        Cal/Mol-Kelvin    Cal/Mol-Kelvin
 Total                  176.706             89.760            171.402
 Electronic               0.000              0.000              0.000
 Translational            0.889              2.981             43.820
 Rotational               0.889              2.981             36.353
 Vibrational            174.929             83.799             91.229
 Vibration     1          0.593              1.986              6.709
 Vibration     2          0.593              1.985              6.383
 Vibration     3          0.594              1.983              5.757
 Vibration     4          0.595              1.979              4.962
 Vibration     5          0.596              1.974              4.486
 Vibration     6          0.597              1.972              4.395
 Vibration     7          0.599              1.966              4.033
 Vibration     8          0.600              1.961              3.824
 Vibration     9          0.609              1.934              3.123
 Vibration    10          0.613              1.920              2.901
 Vibration    11          0.613              1.919              2.885
 Vibration    12          0.616              1.908              2.739
 Vibration    13          0.618              1.904              2.688
 Vibration    14          0.623              1.886              2.496
 Vibration    15          0.634              1.851              2.209
 Vibration    16          0.638              1.838              2.122
 Vibration    17          0.651              1.800              1.903
 Vibration    18          0.659              1.772              1.772
 Vibration    19          0.665              1.755              1.699
 Vibration    20          0.673              1.733              1.611
 Vibration    21          0.676              1.722              1.574
 Vibration    22          0.703              1.642              1.328
 Vibration    23          0.713              1.615              1.259
 Vibration    24          0.741              1.536              1.083
 Vibration    25          0.742              1.534              1.079
 Vibration    26          0.750              1.513              1.039
 Vibration    27          0.774              1.449              0.928
 Vibration    28          0.797              1.390              0.837
 Vibration    29          0.802              1.379              0.821
 Vibration    30          0.808              1.362              0.797
 Vibration    31          0.820              1.334              0.760
 Vibration    32          0.823              1.326              0.750
 Vibration    33          0.828              1.315              0.736
 Vibration    34          0.831              1.307              0.726
 Vibration    35          0.849              1.264              0.674
 Vibration    36          0.858              1.243              0.651
 Vibration    37          0.864              1.231              0.637
 Vibration    38          0.934              1.080              0.490
 Vibration    39          0.945              1.057              0.470
 Vibration    40          0.960              1.028              0.447
 Vibration    41          0.968              1.013              0.435

                           ! Non-Optimized Parameters !
 Normal termination of Gaussian 16 at Sun Jan  7 11:05:31 2024.
