 Gaussian 16, Revision A.03,
 Gaussian 16:  ES64L-G16RevA.03 25-Dec-2016

 ----------------------------------------------------------------
 #P UB3LYP/6-311++G(d,p) SCRF=(PCM,Solvent=n,n-DiMethylFormamide)
 ----------------------------------------------------------------

 -------
 Reduced
 -------
 Symbolic Z-matrix:
 Charge = -2 Multiplicity = 1

                         Standard orientation:
 ---------------------------------------------------------------------
 Center     Atomic      Atomic             Coordinates (Angstroms)
 Number     Number       Type             X           Y           Z
 ---------------------------------------------------------------------
      1          6           0       -2.454919   -0.479764   -0.382184
      2          6           0       -3.659510    0.212775   -0.253012
      3          6           0       -3.666884    1.616058    0.035481
      4          6           0       -1.232190    0.181083   -0.258371
      5          6           0       -1.213155    1.602096    0.027618
      6          6           0       -2.468461    2.265556    0.162180
      7          6           0        0.000289   -0.597985   -0.421826
      8          6           0        1.232407    0.181496   -0.257874
      9          6           0        1.212863    1.602522    0.028226
     10          6           0       -0.000282    2.366325    0.181607
     11          6           0        2.455365   -0.478893   -0.381498
     12          6           0        2.467988    2.266250    0.163555
     13          6           0        3.666645    1.617114    0.037300
     14          8           0        0.000533   -1.827933   -0.675958
     15          8           0       -0.000620    3.622573    0.436232
     16          1           0       -2.437739   -1.542444   -0.592865
     17         16           0       -5.156990   -0.645385   -0.332035
     18          1           0        4.610067    2.140798    0.129857
     19          1           0       -2.427226    3.329530    0.368230
     20          1           0        2.438630   -1.541520   -0.592485
     21          1           0        2.426412    3.330161    0.369870
     22          6           0        3.659755    0.213905   -0.251726
     23         16           0        5.157309   -0.643897   -0.331765
     24          8           0        5.055656   -1.927504   -1.038473
     25          8           0        6.283283    0.242476   -0.671200
     26          8           0        5.412204   -1.056203    1.304313
     27          6           0        6.614533   -1.780468    1.561239
     28          1           0        6.621983   -2.734022    1.022698
     29          1           0        6.627120   -1.969437    2.637247
     30          1           0        7.495954   -1.192926    1.281929
     31          1           0       -4.610462    2.139639    0.127158
     32          8           0       -5.055028   -1.929997   -1.036807
     33          8           0       -6.282952    0.240360   -0.673230
     34          8           0       -5.411894   -1.054731    1.304449
     35          6           0       -6.615945   -1.775533    1.563400
     36          1           0       -6.626512   -2.729574    1.025774
     37          1           0       -7.496019   -1.185815    1.284498
     38          1           0       -6.627759   -1.963423    2.639590
 ---------------------------------------------------------------------

 SCF Done:  E(UB3LYP) =  -2015.63313680     A.U. after   20 cycles

 The electronic state is 1-A.
 Alpha  occ. eigenvalues --  -89.07700 -89.07698 -19.15934 -19.15928 -19.12880
 Alpha  occ. eigenvalues --  -19.12880 -19.12725 -19.12724 -19.05904 -19.02846
 Alpha  occ. eigenvalues --  -10.22080 -10.22076 -10.21738 -10.20393 -10.20393
 Alpha  occ. eigenvalues --  -10.18931 -10.18847 -10.18847 -10.17906 -10.17906
 Alpha  occ. eigenvalues --  -10.16607 -10.16606 -10.16555 -10.16554 -10.16053
 Alpha  occ. eigenvalues --  -10.16052  -8.13813  -8.13811  -6.10166  -6.10164
 Alpha  occ. eigenvalues --   -6.10040  -6.10038  -6.09851  -6.09849  -1.13822
 Alpha  occ. eigenvalues --   -1.13818  -1.02916  -1.02909  -1.01603  -1.01602
 Alpha  occ. eigenvalues --   -0.98707  -0.95078  -0.86340  -0.85996  -0.79787
 Alpha  occ. eigenvalues --   -0.77495  -0.75877  -0.75138  -0.72662  -0.71172
 Alpha  occ. eigenvalues --   -0.67593  -0.65408  -0.65284  -0.60702  -0.60181
 Alpha  occ. eigenvalues --   -0.58404  -0.55883  -0.54951  -0.54696  -0.51901
 Alpha  occ. eigenvalues --   -0.51751  -0.50086  -0.49004  -0.48336  -0.47932
 Alpha  occ. eigenvalues --   -0.46406  -0.45752  -0.45103  -0.44932  -0.44837
 Alpha  occ. eigenvalues --   -0.44577  -0.43015  -0.42694  -0.41579  -0.41117
 Alpha  occ. eigenvalues --   -0.40648  -0.40163  -0.39950  -0.39778  -0.37715
 Alpha  occ. eigenvalues --   -0.37200  -0.36583  -0.35244  -0.34808  -0.34489
 Alpha  occ. eigenvalues --   -0.34323  -0.34186  -0.34031  -0.33607  -0.32665
 Alpha  occ. eigenvalues --   -0.32561  -0.32519  -0.32020  -0.31660  -0.29200
 Alpha  occ. eigenvalues --   -0.29196  -0.26287  -0.25516  -0.24828  -0.24762
 Alpha  occ. eigenvalues --   -0.23134  -0.20977  -0.12939
 Alpha virt. eigenvalues --   -0.06056  -0.05489  -0.00506  -0.00341  -0.00056
 Alpha virt. eigenvalues --    0.00326   0.01130   0.01584   0.01694   0.02491
 Alpha virt. eigenvalues --    0.02526   0.03239   0.03253   0.03793   0.04114

  Beta  occ. eigenvalues --  -89.07700 -89.07698 -19.15934 -19.15928 -19.12880
  Beta  occ. eigenvalues --  -19.12880 -19.12725 -19.12724 -19.05904 -19.02846
  Beta  occ. eigenvalues --  -10.22080 -10.22076 -10.21738 -10.20393 -10.20393
  Beta  occ. eigenvalues --  -10.18931 -10.18847 -10.18847 -10.17906 -10.17906
  Beta  occ. eigenvalues --  -10.16607 -10.16606 -10.16555 -10.16554 -10.16053
  Beta  occ. eigenvalues --  -10.16052  -8.13813  -8.13811  -6.10166  -6.10164
  Beta  occ. eigenvalues --   -6.10040  -6.10038  -6.09851  -6.09849  -1.13822
  Beta  occ. eigenvalues --   -1.13818  -1.02916  -1.02909  -1.01603  -1.01602
  Beta  occ. eigenvalues --   -0.98707  -0.95078  -0.86340  -0.85996  -0.79787
  Beta  occ. eigenvalues --   -0.77495  -0.75877  -0.75138  -0.72662  -0.71172
  Beta  occ. eigenvalues --   -0.67593  -0.65408  -0.65284  -0.60702  -0.60181
  Beta  occ. eigenvalues --   -0.58404  -0.55883  -0.54951  -0.54696  -0.51901
  Beta  occ. eigenvalues --   -0.51751  -0.50086  -0.49004  -0.48336  -0.47932
  Beta  occ. eigenvalues --   -0.46406  -0.45752  -0.45103  -0.44932  -0.44837
  Beta  occ. eigenvalues --   -0.44577  -0.43015  -0.42694  -0.41579  -0.41117
  Beta  occ. eigenvalues --   -0.40648  -0.40163  -0.39950  -0.39778  -0.37715
  Beta  occ. eigenvalues --   -0.37200  -0.36583  -0.35244  -0.34808  -0.34489
  Beta  occ. eigenvalues --   -0.34323  -0.34186  -0.34031  -0.33607  -0.32665
  Beta  occ. eigenvalues --   -0.32561  -0.32519  -0.32020  -0.31660  -0.29200
  Beta  occ. eigenvalues --   -0.29196  -0.26287  -0.25516  -0.24828  -0.24762
  Beta  occ. eigenvalues --   -0.23134  -0.20977  -0.12939
  Beta virt. eigenvalues --   -0.06056  -0.05489  -0.00506  -0.00341  -0.00056
  Beta virt. eigenvalues --    0.00326   0.01130   0.01584   0.01694   0.02491
  Beta virt. eigenvalues --    0.02526   0.03239   0.03253   0.03793   0.04114

 Mulliken charges and spin densities:
               1          2
     1  C    0.018105  -0.000000
     2  C   -0.982269  -0.000000
     3  C   -0.373543   0.000000
     4  C    0.196425   0.000000
     5  C    0.797237  -0.000000
     6  C   -0.234220   0.000000
     7  C   -0.957878  -0.000000
     8  C    0.195269  -0.000000
     9  C    0.796107  -0.000000
    10  C   -0.149161   0.000000
    11  C    0.016631   0.000000
    12  C   -0.233834  -0.000000
    13  C   -0.372496  -0.000000
    14  O   -0.485894  -0.000000
    15  O   -0.621635  -0.000000
    16  H    0.217099   0.000000
    17  S    0.366198  -0.000000
    18  H    0.222382   0.000000
    19  H    0.156154  -0.000000
    20  H    0.217046   0.000000
    21  H    0.156136  -0.000000
    22  C   -0.982796   0.000000
    23  S    0.367522  -0.000000
    24  O   -0.256317  -0.000000
    25  O   -0.265082  -0.000000
    26  O   -0.118558  -0.000000
    27  C   -0.139863  -0.000000
    28  H    0.164688  -0.000000
    29  H    0.176418  -0.000000
    30  H    0.162990   0.000000
    31  H    0.222332   0.000000
    32  O   -0.255757  -0.000000
    33  O   -0.265654  -0.000000
    34  O   -0.118231  -0.000000
    35  C   -0.139763  -0.000000
    36  H    0.164759   0.000000
    37  H    0.163025   0.000000
    38  H    0.176429  -0.000000
 Sum of Mulliken charges =  -2.00000   0.00000

 Dipole moment (field-independent basis, Debye):
    X=             -0.0115    Y=             -5.2811    Z=              5.6827  Tot=              7.7578
 Quadrupole moment (field-independent basis, Debye-Ang):
   XX=           -279.5458   YY=           -227.4025   ZZ=           -179.5069
   XY=             -0.0434   XZ=             -0.0382   YZ=            -17.5107

 Normal termination of Gaussian 16 at Tue Jan 16 06:38:26 2024.
