 Gaussian 16, Revision A.03,
 Gaussian 16:  ES64L-G16RevA.03 25-Dec-2016

 ----------------------------------------------------------------------
 #P UB3LYP/6-311++G(d,p) nosym opt freq SCRF=(PCM,Solvent=n,n-DiMethylF
 ormamide)
 ----------------------------------------------------------------------

 -------
 Radical
 -------
 Symbolic Z-matrix:
 Charge = -1 Multiplicity = 2

 SCF Done:  E(UB3LYP) =  -950.353260184     A.U. after   19 cycles
 SCF Done:  E(UB3LYP) =  -950.353571330     A.U. after   16 cycles
 SCF Done:  E(UB3LYP) =  -950.353680627     A.U. after   15 cycles
 SCF Done:  E(UB3LYP) =  -950.353854162     A.U. after   14 cycles
 SCF Done:  E(UB3LYP) =  -950.353871180     A.U. after   14 cycles
 SCF Done:  E(UB3LYP) =  -950.353887820     A.U. after   13 cycles
 SCF Done:  E(UB3LYP) =  -950.353900443     A.U. after   11 cycles
 SCF Done:  E(UB3LYP) =  -950.353905896     A.U. after   12 cycles
 SCF Done:  E(UB3LYP) =  -950.353907383     A.U. after   12 cycles
 SCF Done:  E(UB3LYP) =  -950.353907672     A.U. after   10 cycles
 SCF Done:  E(UB3LYP) =  -950.353907809     A.U. after    9 cycles
 Optimization completed.
    -- Stationary point found.
 Normal termination of Gaussian 16 at Sun Feb 11 00:08:27 2024.

 ----------------------------------------------------------------------
 #P Geom=AllCheck Guess=TCheck SCRF=Check GenChk UB3LYP/6-311++G(d,p) F
 req
 ----------------------------------------------------------------------

 Structure from the checkpoint file:  "198-rad.chk"
 -------
 Radical
 -------
 Charge = -1 Multiplicity = 2

                          Input orientation:
 ---------------------------------------------------------------------
 Center     Atomic      Atomic             Coordinates (Angstroms)
 Number     Number       Type             X           Y           Z
 ---------------------------------------------------------------------
      1          7           0        3.128882   -1.239403    1.307044
      2          6           0        2.659604   -0.535737    0.207609
      3          6           0        3.583097   -0.111257   -0.749254
      4          6           0        3.188671    0.651600   -1.844963
      5          6           0        1.868390    1.038047   -2.013745
      6          8           0        1.530004    1.788421   -3.117383
      7          6           0        0.877954    0.644166   -1.069595
      8          6           0       -0.503544    1.064457   -1.198545
      9          8           0       -0.875769    1.901587   -2.105041
     10          6           0       -1.489774    0.530907   -0.280853
     11          6           0       -2.852840    0.923036   -0.432529
     12          8           0       -3.231061    1.784145   -1.411996
     13          6           0       -3.819104    0.421138    0.429226
     14          6           0       -3.470472   -0.478068    1.434882
     15          6           0       -2.149551   -0.897850    1.624707
     16          7           0       -1.887236   -1.851366    2.602670
     17          6           0       -1.123909   -0.375395    0.770393
     18          6           0        0.276164   -0.711416    0.972411
     19          8           0        0.623836   -1.462502    1.952827
     20          6           0        1.274363   -0.190955    0.044676
     21          1           0        3.999751   -1.732279    1.174162
     22          1           0        2.400025   -1.709634    1.835729
     23          1           0        4.627493   -0.379886   -0.630427
     24          1           0        3.929070    0.955537   -2.579500
     25          1           0        2.330596    1.916373   -3.640828
     26          1           0       -2.353195    2.002561   -1.882818
     27          1           0       -4.849363    0.734134    0.301251
     28          1           0       -4.241524   -0.874197    2.088293
     29          1           0       -0.903664   -1.921696    2.845106
     30          1           0       -2.546897   -1.884471    3.366493
 ---------------------------------------------------------------------

 SCF Done:  E(UB3LYP) =  -950.353907809     A.U. after    1 cycles

 Alpha  occ. eigenvalues --  -19.14641 -19.11761 -19.07956 -19.07698 -14.30225
 Alpha  occ. eigenvalues --  -14.30150 -10.23108 -10.23055 -10.22954 -10.22238
 Alpha  occ. eigenvalues --  -10.21340 -10.21030 -10.17891 -10.17739 -10.17342
 Alpha  occ. eigenvalues --  -10.17225 -10.17100 -10.16628 -10.16522 -10.16385
 Alpha  occ. eigenvalues --   -1.05780  -1.04217  -1.00372  -0.99280  -0.91261
 Alpha  occ. eigenvalues --   -0.90693  -0.84529  -0.82735  -0.78367  -0.74403
 Alpha  occ. eigenvalues --   -0.73139  -0.71653  -0.66738  -0.64173  -0.63634
 Alpha  occ. eigenvalues --   -0.59226  -0.57277  -0.55992  -0.53860  -0.52305
 Alpha  occ. eigenvalues --   -0.51076  -0.49695  -0.49358  -0.47549  -0.45912
 Alpha  occ. eigenvalues --   -0.44962  -0.44686  -0.43502  -0.43312  -0.41878
 Alpha  occ. eigenvalues --   -0.40848  -0.40721  -0.39611  -0.39460  -0.38898
 Alpha  occ. eigenvalues --   -0.37790  -0.37046  -0.36436  -0.36086  -0.35380
 Alpha  occ. eigenvalues --   -0.34727  -0.34229  -0.29308  -0.28351  -0.26481
 Alpha  occ. eigenvalues --   -0.24959  -0.24773  -0.23885  -0.21058  -0.19147
 Alpha  occ. eigenvalues --   -0.13392
 Alpha virt. eigenvalues --   -0.03711  -0.02502  -0.00295   0.00261   0.00705
 Alpha virt. eigenvalues --    0.01733   0.01875   0.02080   0.03403   0.03871
 Alpha virt. eigenvalues --    0.04271   0.04442   0.04917   0.05910   0.06294

  Beta  occ. eigenvalues --  -19.14597 -19.11695 -19.07511 -19.07292 -14.30187
  Beta  occ. eigenvalues --  -14.30097 -10.22986 -10.22951 -10.22731 -10.22172
  Beta  occ. eigenvalues --  -10.21339 -10.21004 -10.17876 -10.17708 -10.17333
  Beta  occ. eigenvalues --  -10.17239 -10.17041 -10.16480 -10.16398 -10.16303
  Beta  occ. eigenvalues --   -1.05672  -1.03999  -0.99680  -0.98563  -0.91161
  Beta  occ. eigenvalues --   -0.90537  -0.84301  -0.82574  -0.77986  -0.74235
  Beta  occ. eigenvalues --   -0.72812  -0.71439  -0.66128  -0.63970  -0.63412
  Beta  occ. eigenvalues --   -0.59112  -0.57126  -0.55764  -0.53759  -0.52233
  Beta  occ. eigenvalues --   -0.50984  -0.49555  -0.49255  -0.47292  -0.45788
  Beta  occ. eigenvalues --   -0.44869  -0.44552  -0.43233  -0.42689  -0.41687
  Beta  occ. eigenvalues --   -0.40479  -0.40342  -0.39446  -0.38999  -0.38283
  Beta  occ. eigenvalues --   -0.37669  -0.36689  -0.35863  -0.35243  -0.35082
  Beta  occ. eigenvalues --   -0.34512  -0.33110  -0.28571  -0.27827  -0.25004
  Beta  occ. eigenvalues --   -0.24578  -0.24396  -0.23530  -0.19835  -0.18371
  Beta virt. eigenvalues --   -0.08395  -0.02395  -0.01485  -0.00278   0.00273
  Beta virt. eigenvalues --    0.00723   0.01760   0.01919   0.02404   0.03434
  Beta virt. eigenvalues --    0.03913   0.04291   0.04592   0.05593   0.05957

 Mulliken charges and spin densities:
               1          2
     1  N   -0.424391   0.017929
     2  C   -0.014071   0.000628
     3  C   -0.173380   0.111997
     4  C   -0.309359   0.042092
     5  C   -0.213058   0.061133
     6  O   -0.276257   0.011981
     7  C    0.391984  -0.005292
     8  C   -0.512709   0.121666
     9  O   -0.504700   0.158548
    10  C    0.581799  -0.012158
    11  C   -0.162386   0.063837
    12  O   -0.457130   0.019677
    13  C   -0.303257   0.055728
    14  C   -0.242721   0.097606
    15  C   -0.093002   0.020755
    16  N   -0.419721   0.023801
    17  C    0.264452  -0.002745
    18  C   -0.497561   0.088968
    19  O   -0.480807   0.142471
    20  C    0.321620   0.017381
    21  H    0.262133  -0.001092
    22  H    0.314400  -0.002002
    23  H    0.174556  -0.008709
    24  H    0.159823  -0.004313
    25  H    0.292050  -0.000553
    26  H    0.395108  -0.003559
    27  H    0.183620  -0.004771
    28  H    0.171719  -0.007672
    29  H    0.312679  -0.002219
    30  H    0.258566  -0.001112
 Sum of Mulliken charges =  -1.00000   1.00000

 Dipole moment (field-independent basis, Debye):
    X=              6.1372    Y=             -3.7719    Z=              2.5339  Tot=              7.6363
 Quadrupole moment (field-independent basis, Debye-Ang):
   XX=           -119.6271   YY=           -135.5309   ZZ=           -127.3424
   XY=              8.5909   XZ=            -22.5698   YZ=              9.2046

  Exact polarizability: 561.671 -23.639 246.391 -69.355-126.174 335.332
 Approx polarizability: 585.807 -33.400 289.319 -57.977-152.386 390.004

                      1                      2                      3
                      A                      A                      A
 Frequencies --     42.2473                48.0187                95.3265
 Red. masses --      6.9767                 6.3657                 8.8434
 Frc consts  --      0.0073                 0.0086                 0.0473
 IR Inten    --     15.6403                 0.0337                 0.3994

                      4                      5                      6
                      A                      A                      A
 Frequencies --    116.3919               135.0447               182.9822
 Red. masses --      5.1875                 6.0322                 7.2332
 Frc consts  --      0.0414                 0.0648                 0.1427
 IR Inten    --      1.3462                 0.8046                 3.5946

                      7                      8                      9
                      A                      A                      A
 Frequencies --    208.5368               258.2567               300.1877
 Red. masses --      6.2709                 4.5447                 5.8821
 Frc consts  --      0.1607                 0.1786                 0.3123
 IR Inten    --     11.0979                13.2871                 1.4758

                     10                     11                     12
                      A                      A                      A
 Frequencies --    312.6595               337.0286               356.0347
 Red. masses --      5.8549                 1.7735                 3.8564
 Frc consts  --      0.3372                 0.1187                 0.2880
 IR Inten    --      7.7660                45.5014                34.2626

                     13                     14                     15
                      A                      A                      A
 Frequencies --    368.9561               380.0514               412.4164
 Red. masses --      1.8916                 3.3482                 2.2113
 Frc consts  --      0.1517                 0.2849                 0.2216
 IR Inten    --    142.2462                69.0070               210.5879

                     16                     17                     18
                      A                      A                      A
 Frequencies --    416.1848               423.5876               428.1089
 Red. masses --      4.0606                 2.6657                 2.1362
 Frc consts  --      0.4144                 0.2818                 0.2307
 IR Inten    --     91.7158                85.3738               188.0065

                     19                     20                     21
                      A                      A                      A
 Frequencies --    438.6905               460.5506               463.3645
 Red. masses --      3.8806                 4.0342                 7.1180
 Frc consts  --      0.4400                 0.5041                 0.9004
 IR Inten    --     41.9755                45.7917                16.4253

                     22                     23                     24
                      A                      A                      A
 Frequencies --    469.6831               489.5543               496.4179
 Red. masses --      7.6367                 5.3818                 4.7042
 Frc consts  --      0.9926                 0.7599                 0.6830
 IR Inten    --     27.1353               120.1233                21.1762

                     25                     26                     27
                      A                      A                      A
 Frequencies --    500.6453               544.4921               556.7926
 Red. masses --      4.7461                 6.0193                 3.5177
 Frc consts  --      0.7009                 1.0514                 0.6425
 IR Inten    --      5.1741                28.1135                51.4421

                     28                     29                     30
                      A                      A                      A
 Frequencies --    591.9993               618.3141               642.5748
 Red. masses --      3.0489                 2.4027                 1.8253
 Frc consts  --      0.6296                 0.5412                 0.4440
 IR Inten    --    105.3196                50.0740               154.2728

                     31                     32                     33
                      A                      A                      A
 Frequencies --    655.1617               661.6143               721.2932
 Red. masses --      2.2318                 1.7689                 5.9436
 Frc consts  --      0.5644                 0.4562                 1.8219
 IR Inten    --    176.0968               208.3550                12.0415

                     34                     35                     36
                      A                      A                      A
 Frequencies --    734.6324               751.6122               759.6944
 Red. masses --      7.3237                 5.3018                 4.7105
 Frc consts  --      2.3287                 1.7647                 1.6017
 IR Inten    --     14.2307                40.3756                 2.0353

                     37                     38                     39
                      A                      A                      A
 Frequencies --    789.8867               807.6266               815.4978
 Red. masses --      8.9494                 1.8036                 5.6329
 Frc consts  --      3.2898                 0.6931                 2.2071
 IR Inten    --      0.4293                60.1188               155.9553

                     40                     41                     42
                      A                      A                      A
 Frequencies --    819.9339               855.2185               897.3911
 Red. masses --      1.9481                 6.8826                 1.3354
 Frc consts  --      0.7716                 2.9659                 0.6336
 IR Inten    --    113.3955                24.1913                 0.6205

                     43                     44                     45
                      A                      A                      A
 Frequencies --    914.8423               953.4957               964.5376
 Red. masses --      1.3330                 6.6467                 1.0541
 Frc consts  --      0.6573                 3.5603                 0.5778
 IR Inten    --      1.4718               245.5463               125.7732

                     46                     47                     48
                      A                      A                      A
 Frequencies --    968.4784               998.1542              1079.0130
 Red. masses --      6.1655                 4.1039                 1.7318
 Frc consts  --      3.4072                 2.4090                 1.1880
 IR Inten    --    246.4206                49.5474                19.8316

                     49                     50                     51
                      A                      A                      A
 Frequencies --   1125.1876              1157.7135              1180.8753
 Red. masses --      1.7565                 1.3565                 1.3765
 Frc consts  --      1.3102                 1.0712                 1.1309
 IR Inten    --    156.7122               257.4916                18.9795

                     52                     53                     54
                      A                      A                      A
 Frequencies --   1194.6255              1227.8759              1230.2752
 Red. masses --      1.9166                 4.4341                 2.7476
 Frc consts  --      1.6115                 3.9388                 2.4502
 IR Inten    --    151.1345                 5.5610                74.2085

                     55                     56                     57
                      A                      A                      A
 Frequencies --   1250.8082              1267.1404              1287.4572
 Red. masses --      2.8417                 3.6885                 3.5609
 Frc consts  --      2.6195                 3.4894                 3.4775
 IR Inten    --     71.6554                42.9394               239.8928

                     58                     59                     60
                      A                      A                      A
 Frequencies --   1294.2336              1315.7991              1343.2528
 Red. masses --      2.7292                 3.4501                 6.5539
 Frc consts  --      2.6934                 3.5193                 6.9673
 IR Inten    --      3.9687               770.2997                35.8594

                     61                     62                     63
                      A                      A                      A
 Frequencies --   1363.2324              1392.1232              1406.4323
 Red. masses --      5.1437                 5.8819                 4.0747
 Frc consts  --      5.6320                 6.7161                 4.7488
 IR Inten    --    448.6004               351.0207               108.8493

                     64                     65                     66
                      A                      A                      A
 Frequencies --   1417.7047              1458.0865              1477.8998
 Red. masses --      3.2752                 3.3824                 2.6641
 Frc consts  --      3.8785                 4.2369                 3.4284
 IR Inten    --    607.1358                13.6280               381.9381

                     67                     68                     69
                      A                      A                      A
 Frequencies --   1504.0755              1550.4660              1559.9949
 Red. masses --      3.8359                 2.3501                 1.4243
 Frc consts  --      5.1128                 3.3286                 2.0423
 IR Inten    --   1739.1950                63.4658                32.5395

                     70                     71                     72
                      A                      A                      A
 Frequencies --   1587.4397              1598.7050              1602.6433
 Red. masses --      3.3401                 1.5500                 2.9608
 Frc consts  --      4.9592                 2.3342                 4.4806
 IR Inten    --    830.4143               197.8236                90.2735

                     73                     74                     75
                      A                      A                      A
 Frequencies --   1626.8364              1640.5865              2715.4192
 Red. masses --      3.9403                 3.3891                 1.0773
 Frc consts  --      6.1442                 5.3745                 4.6804
 IR Inten    --     96.1395                38.8232               898.2216

                     76                     77                     78
                      A                      A                      A
 Frequencies --   3145.8901              3154.0103              3168.2056
 Red. masses --      1.0878                 1.0877                 1.0932
 Frc consts  --      6.3428                 6.3751                 6.4652
 IR Inten    --     48.0287                43.0432                35.9685

                     79                     80                     81
                      A                      A                      A
 Frequencies --   3178.4691              3448.2850              3460.7189
 Red. masses --      1.0932                 1.0562                 1.0551
 Frc consts  --      6.5070                 7.3998                 7.4453
 IR Inten    --     38.1401               178.1056                80.5627

                     82                     83                     84
                      A                      A                      A
 Frequencies --   3631.2865              3635.3702              3796.3116
 Red. masses --      1.0930                 1.0923                 1.0659
 Frc consts  --      8.4916                 8.5056                 9.0511
 IR Inten    --     97.4301                79.3209               115.8081

 - Thermochemistry -
 -------------------
 Temperature   298.150 Kelvin.  Pressure   1.00000 Atm.
 Atom     1 has atomic number  7 and mass  14.00307

 Molecular mass:   270.06406 amu.
 Principal axes and moments of inertia in atomic units:
                           1         2         3
     Eigenvalues --  3469.755825558.710169004.24805
           X            0.95000   0.27583   0.14637
           Y            0.05199  -0.60192   0.79686
           Z           -0.30790   0.74941   0.58616
 This molecule is an asymmetric top.
 Rotational symmetry number  1.
 Warning -- assumption of classical behavior for rotation
           may cause significant error
 Rotational temperatures (Kelvin)      0.02496     0.01558     0.00962
 Rotational constants (GHZ):           0.52013     0.32467     0.20043
 Zero-point vibrational energy     572046.0 (Joules/Mol)
                                  136.72227 (Kcal/Mol)
 Warning -- explicit consideration of  29 degrees of freedom as
           vibrations may cause significant error
 Vibrational temperatures:     60.78    69.09   137.15   167.46   194.30
          (Kelvin)            263.27   300.04   371.57   431.90   449.85
                              484.91   512.25   530.85   546.81   593.38
                              598.80   609.45   615.95   631.18   662.63
                              666.68   675.77   704.36   714.23   720.32
                              783.40   801.10   851.75   889.62   924.52
                              942.63   951.92  1037.78  1056.97  1081.40
                             1093.03  1136.47  1161.99  1173.32  1179.70
                             1230.47  1291.15  1316.25  1371.87  1387.75
                             1393.42  1436.12  1552.46  1618.89  1665.69
                             1699.02  1718.80  1766.64  1770.09  1799.63
                             1823.13  1852.36  1862.11  1893.14  1932.64
                             1961.39  2002.95  2023.54  2039.76  2097.86
                             2126.37  2164.03  2230.77  2244.48  2283.97
                             2300.18  2305.85  2340.65  2360.44  3906.88
                             4526.23  4537.92  4558.34  4573.11  4961.31
                             4979.20  5224.61  5230.49  5462.05

 Zero-point correction=                           0.217881 (Hartree/Particle)
 Thermal correction to Energy=                    0.233622
 Thermal correction to Enthalpy=                  0.234566
 Thermal correction to Gibbs Free Energy=         0.174891
 Sum of electronic and zero-point Energies=           -950.136027
 Sum of electronic and thermal Energies=              -950.120286
 Sum of electronic and thermal Enthalpies=            -950.119342
 Sum of electronic and thermal Free Energies=         -950.179017

                     E (Thermal)             CV                S
                      KCal/Mol        Cal/Mol-Kelvin    Cal/Mol-Kelvin
 Total                  146.600             64.944            125.597
 Electronic               0.000              0.000              1.377
 Translational            0.889              2.981             42.679
 Rotational               0.889              2.981             33.518
 Vibrational            144.823             58.982             48.023
 Vibration     1          0.595              1.980              5.151
 Vibration     2          0.595              1.978              4.897
 Vibration     3          0.603              1.953              3.548
 Vibration     4          0.608              1.936              3.159
 Vibration     5          0.613              1.918              2.873
 Vibration     6          0.630              1.863              2.298
 Vibration     7          0.642              1.828              2.056
 Vibration     8          0.667              1.749              1.674
 Vibration     9          0.693              1.673              1.416
 Vibration    10          0.701              1.650              1.348
 Vibration    11          0.718              1.602              1.226
 Vibration    12          0.732              1.563              1.139
 Vibration    13          0.741              1.536              1.084
 Vibration    14          0.750              1.513              1.039
 Vibration    15          0.776              1.443              0.918
 Vibration    16          0.779              1.435              0.905
 Vibration    17          0.786              1.419              0.880
 Vibration    18          0.790              1.409              0.865
 Vibration    19          0.799              1.386              0.831
 Vibration    20          0.818              1.338              0.765
 Vibration    21          0.821              1.331              0.756
 Vibration    22          0.827              1.317              0.738
 Vibration    23          0.845              1.273              0.685
 Vibration    24          0.852              1.258              0.667
 Vibration    25          0.856              1.249              0.657
 Vibration    26          0.900              1.152              0.556
 Vibration    27          0.912              1.125              0.530
 Vibration    28          0.949              1.049              0.464
 Vibration    29          0.978              0.993              0.419

                           ! Non-Optimized Parameters !
 Normal termination of Gaussian 16 at Sun Feb 11 02:25:23 2024.
