 Q-Chem 5.4, Q-Chem, Inc., Pleasanton, CA (2021)
 Q-Chem 5.4.0 for Intel X86 EM64T Linux

User input:
--------------------------------------------------------------
$molecule
-2 1
N                 -2.5823290000     -2.2747500000      0.6046910000
C                 -2.3465170000     -0.9339700000      0.2205480000
C                 -3.4190290000     -0.0934260000     -0.0011980000
C                 -3.2152830000      1.2725310000     -0.3104360000
C                 -1.9425690000      1.8027910000     -0.3636380000
O                 -1.8156540000      3.1638910000     -0.6220860000
C                 -0.7781180000      0.9886580000     -0.1796180000
C                  0.5604110000      1.5556710000     -0.2901910000
O                  0.8098900000      2.7752190000     -0.5525500000
C                  1.6538800000      0.6119000000     -0.0828640000
C                  2.9848020000      1.0853130000     -0.1503570000
C                  4.0738430000      0.2502780000      0.0122680000
C                  3.8594350000     -1.1354370000      0.2510120000
C                  2.5729680000     -1.6267250000      0.3197680000
C                  1.4365400000     -0.7868930000      0.1629050000
C                  0.1180830000     -1.3556240000      0.2522770000
O                 -0.0167750000     -2.6413930000      0.4432840000
C                 -0.9899830000     -0.4389670000      0.1112550000
H                 -3.3416470000     -2.6913370000      0.0818930000
H                 -1.6867270000     -2.7948470000      0.5437030000
H                 -4.4301810000     -0.4784150000      0.1136840000
H                 -4.0725780000      1.9171560000     -0.5080100000
H                 -2.7100320000      3.5177010000     -0.5515690000
H                  3.1067080000      2.1469320000     -0.3415830000
H                  5.0861680000      0.6470050000     -0.0427830000
H                  4.7088340000     -1.8049630000      0.3795000000
H                  2.3758610000     -2.6782990000      0.5000960000
$end
$rem
MAX_SCF_CYCLES=200
BASIS  =  6-311++G(d,p)
GUI  =  2
JOB_TYPE  =  SP
METHOD  =  B3LYP
SOLVENT_METHOD = COSMO
$end
$solvent
dielectric 37.219
opticaldielectric 1.43
$end

--------------------------------------------------------------

             Standard Nuclear Orientation (Angstroms)
    I     Atom           X                Y                Z
 ----------------------------------------------------------------
    1      N      -2.1747716872    -2.8387406345     0.1630265612
    2      C      -2.1547243919    -1.4296160034     0.0412479418
    3      C      -3.3474871352    -0.7362689368    -0.0092929142
    4      C      -3.3602647560     0.6782786414    -0.0525477459
    5      C      -2.1833077693     1.3971837430    -0.0106579800
    6      O      -2.2695188654     2.7857176076    -0.0045465426
    7      C      -0.9049342781     0.7506096918     0.0073766215
    8      C       0.3295919895     1.5260286646    -0.0003903255
    9      O       0.3854397093     2.7966972016    -0.0259215191
   10      C       1.5579294932     0.7384519689     0.0161192159
   11      C       2.8003743189     1.4137906551     0.0327642645
   12      C       4.0065899720     0.7394451723     0.0262366651
   13      C       4.0093140048    -0.6826268160    -0.0034178267
   14      C       2.8135065129    -1.3687527877    -0.0225024220
   15      C       1.5599478408    -0.6980784067    -0.0091263784
   16      C       0.3447740116    -1.4681055691    -0.0226133867
   17      O       0.4095695046    -2.7720719582    -0.0804534750
   18      C      -0.8916403522    -0.7215481649     0.0208502033
   19      H      -2.8813771022    -3.2604734152    -0.4254261146
   20      H      -1.2144019200    -3.1949984129    -0.0015749987
   21      H      -4.2854324954    -1.2858888259     0.0356431508
   22      H      -4.3103323742     1.2098842673    -0.1181112462
   23      H      -3.2035922692     2.9790436669     0.1375734118
   24      H       2.7561397646     2.4983586220     0.0475624557
   25      H       4.9460335570     1.2893667096     0.0422642735
   26      H       4.9528762298    -1.2265888719    -0.0103821177
   27      H       2.7815488663    -2.4530132206    -0.0456380459
 ----------------------------------------------------------------

   20    -819.5354509635      8.58e-06  Convergence criterion met
 Total energy in the final basis set =     -819.5354509635
    6    -819.8186807464      3.49e-06  Convergence criterion met
 Total energy in the final basis set =     -819.8186807464

                    Orbital Energies (a.u.)
 --------------------------------------------------------------

 Alpha MOs
 -- Occupied --
-19.1270 -19.0290 -19.0238 -14.2733 -10.2052 -10.1848 -10.1820 -10.1801
-10.1517 -10.1503 -10.1485 -10.1477 -10.1475 -10.1473 -10.1425 -10.1395
-10.1381 -10.1374  -1.0350  -0.9505  -0.9470  -0.8772  -0.8285  -0.8039
 -0.7531  -0.7250  -0.7106  -0.6970  -0.6383  -0.6113  -0.5998  -0.5606
 -0.5375  -0.5205  -0.5104  -0.4790  -0.4641  -0.4441  -0.4386  -0.4280
 -0.4167  -0.4040  -0.3989  -0.3976  -0.3779  -0.3711  -0.3690  -0.3575
 -0.3547  -0.3426  -0.3412  -0.3240  -0.3199  -0.3109  -0.3067  -0.2669
 -0.2325  -0.2308  -0.2199  -0.2095  -0.1978  -0.1827  -0.1077

          Ground-State Mulliken Net Atomic Charges

     Atom                 Charge (a.u.)
  ----------------------------------------
      1 N                    -0.512643
      2 C                     0.001215
      3 C                    -0.350449
      4 C                    -0.354978
      5 C                    -0.281832
      6 O                    -0.300077
      7 C                     0.429160
      8 C                    -0.263711
      9 O                    -0.661434
     10 C                    -0.096443
     11 C                     0.050443
     12 C                    -0.545397
     13 C                    -0.562129
     14 C                     0.079130
     15 C                     0.090044
     16 C                    -0.322464
     17 O                    -0.671887
     18 C                     0.395746
     19 H                     0.255951
     20 H                     0.316263
     21 H                     0.172697
     22 H                     0.163550
     23 H                     0.298906
     24 H                     0.151789
     25 H                     0.178589
     26 H                     0.178759
     27 H                     0.161203
  ----------------------------------------
  Sum of atomic charges =    -2.000000

                    Cartesian Multipole Moments
 -----------------------------------------------------------------
    Charge (ESU x 10^10)
                -9.6064
    Dipole Moment (Debye)
         X      -3.6790      Y      -0.8923      Z      -0.8810
       Tot       3.8868
    Quadrupole Moments (Debye-Ang)
        XX    -120.3460     XY      -4.2592     YY    -167.7081
        XZ       3.1865     YZ       5.3478     ZZ    -118.2443

 Total job time:  96.92s(wall), 756.00s(cpu)
        *  Thank you very much for using Q-Chem.  Have a nice day.  *
