 Gaussian 16, Revision A.03,
 Gaussian 16:  ES64L-G16RevA.03 25-Dec-2016

 ----------------------------------------------------------------------
 #P UB3LYP/6-311++G(d,p) nosym opt freq SCRF=(PCM,Solvent=n,n-DiMethylF
 ormamide)
 ----------------------------------------------------------------------

 --------
 Oxidized
 --------
 Symbolic Z-matrix:
 Charge = -1 Multiplicity = 1

 SCF Done:  E(UB3LYP) =  -1367.81498603     A.U. after   16 cycles
 SCF Done:  E(UB3LYP) =  -1367.81537309     A.U. after   14 cycles
 SCF Done:  E(UB3LYP) =  -1367.81613799     A.U. after   14 cycles
 SCF Done:  E(UB3LYP) =  -1367.81651374     A.U. after   13 cycles
 SCF Done:  E(UB3LYP) =  -1367.81659086     A.U. after   12 cycles
 SCF Done:  E(UB3LYP) =  -1367.81657028     A.U. after   12 cycles
 SCF Done:  E(UB3LYP) =  -1367.81660874     A.U. after   11 cycles
 SCF Done:  E(UB3LYP) =  -1367.81662382     A.U. after   11 cycles
 SCF Done:  E(UB3LYP) =  -1367.81662756     A.U. after   10 cycles
 SCF Done:  E(UB3LYP) =  -1367.81662867     A.U. after    9 cycles
 SCF Done:  E(UB3LYP) =  -1367.81662929     A.U. after   10 cycles
 SCF Done:  E(UB3LYP) =  -1367.81662939     A.U. after    9 cycles
 Optimization completed.
    -- Stationary point found.
 Normal termination of Gaussian 16 at Sat Feb 10 23:13:38 2024.

 ----------------------------------------------------------------------
 #P Geom=AllCheck Guess=TCheck SCRF=Check GenChk UB3LYP/6-311++G(d,p) F
 req
 ----------------------------------------------------------------------

 Structure from the checkpoint file:  "157.chk"
 --------
 Oxidized
 --------
 Charge = -1 Multiplicity = 1

                          Input orientation:
 ---------------------------------------------------------------------
 Center     Atomic      Atomic             Coordinates (Angstroms)
 Number     Number       Type             X           Y           Z
 ---------------------------------------------------------------------
      1          6           0       -1.700817    1.886009   -5.160635
      2          6           0       -1.596212    0.553602   -5.544979
      3          6           0       -1.254127   -0.423958   -4.606120
      4          6           0       -1.464811    2.259462   -3.833305
      5          6           0       -1.121112    1.275967   -2.891529
      6          6           0       -1.017904   -0.062927   -3.285172
      7          6           0       -1.583147    3.699543   -3.454475
      8          6           0       -0.867945    1.647761   -1.478727
      9          6           0       -1.325313    4.082504   -2.062952
     10          6           0       -0.988105    3.089822   -1.104573
     11          6           0       -1.430202    5.452657   -1.648700
     12          6           0       -1.164084    5.755831   -0.276489
     13          6           0       -0.850572    4.759398    0.624561
     14          6           0       -0.763359    3.424472    0.221244
     15          8           0       -1.894052    4.520563   -4.328867
     16          8           0       -0.572168    0.800498   -0.643579
     17          7           0       -1.753383    6.437015   -2.515604
     18          1           0       -1.964565    2.651306   -5.878829
     19          1           0       -1.780623    0.273809   -6.575669
     20          1           0       -1.173294   -1.461791   -4.907244
     21          1           0       -0.752256   -0.806076   -2.544130
     22         16           0       -1.118586    7.476339    0.313089
     23          1           0       -0.667947    5.030334    1.656778
     24          1           0       -2.000232    6.164293   -3.457979
     25          1           0       -2.031887    7.334967   -2.136827
     26          1           0       -0.515070    2.647573    0.931055
     27          8           0       -2.289625    8.149495   -0.329944
     28          8           0       -1.223274    7.401201    1.791280
     29          8           0        0.181679    8.022593   -0.162927
 ---------------------------------------------------------------------

 SCF Done:  E(UB3LYP) =  -1367.81662939     A.U. after    2 cycles

 Alpha  occ. eigenvalues --  -89.05309 -19.12738 -19.12470 -19.09694 -19.09679
 Alpha  occ. eigenvalues --  -19.09475 -14.32875 -10.28013 -10.27858 -10.25490
 Alpha  occ. eigenvalues --  -10.21222 -10.20801 -10.20678 -10.20500 -10.20393
 Alpha  occ. eigenvalues --  -10.20002 -10.19696 -10.19634 -10.19574 -10.19461
 Alpha  occ. eigenvalues --  -10.18740  -8.11187  -6.07461  -6.07440  -6.07372
 Alpha  occ. eigenvalues --   -1.11569  -1.06044  -1.05662  -0.98071  -0.97621
 Alpha  occ. eigenvalues --   -0.94483  -0.88879  -0.86904  -0.81380  -0.77638
 Alpha  occ. eigenvalues --   -0.77456  -0.75842  -0.69319  -0.67311  -0.65333
 Alpha  occ. eigenvalues --   -0.62278  -0.60089  -0.58833  -0.57282  -0.54782
 Alpha  occ. eigenvalues --   -0.52550  -0.50842  -0.50450  -0.49732  -0.47514
 Alpha  occ. eigenvalues --   -0.47153  -0.45987  -0.45656  -0.45444  -0.45231
 Alpha  occ. eigenvalues --   -0.45169  -0.44871  -0.43153  -0.41788  -0.41139
 Alpha  occ. eigenvalues --   -0.40346  -0.39099  -0.38016  -0.37321  -0.36631
 Alpha  occ. eigenvalues --   -0.34258  -0.33975  -0.33288  -0.31240  -0.30486
 Alpha  occ. eigenvalues --   -0.29901  -0.28542  -0.28458  -0.27659  -0.27230
 Alpha  occ. eigenvalues --   -0.27090  -0.26092  -0.22794
 Alpha virt. eigenvalues --   -0.11700  -0.06725  -0.03827  -0.01759  -0.00429
 Alpha virt. eigenvalues --    0.00497   0.01069   0.01940   0.02293   0.03013
 Alpha virt. eigenvalues --    0.03770   0.03882   0.04012   0.04236   0.04417

  Beta  occ. eigenvalues --  -89.05309 -19.12738 -19.12470 -19.09694 -19.09679
  Beta  occ. eigenvalues --  -19.09475 -14.32875 -10.28013 -10.27858 -10.25490
  Beta  occ. eigenvalues --  -10.21222 -10.20801 -10.20678 -10.20500 -10.20393
  Beta  occ. eigenvalues --  -10.20002 -10.19696 -10.19634 -10.19574 -10.19461
  Beta  occ. eigenvalues --  -10.18740  -8.11187  -6.07461  -6.07440  -6.07372
  Beta  occ. eigenvalues --   -1.11569  -1.06044  -1.05662  -0.98071  -0.97621
  Beta  occ. eigenvalues --   -0.94483  -0.88879  -0.86904  -0.81380  -0.77638
  Beta  occ. eigenvalues --   -0.77456  -0.75842  -0.69319  -0.67311  -0.65333
  Beta  occ. eigenvalues --   -0.62278  -0.60089  -0.58833  -0.57282  -0.54782
  Beta  occ. eigenvalues --   -0.52550  -0.50842  -0.50450  -0.49732  -0.47514
  Beta  occ. eigenvalues --   -0.47153  -0.45987  -0.45656  -0.45444  -0.45231
  Beta  occ. eigenvalues --   -0.45169  -0.44871  -0.43153  -0.41788  -0.41139
  Beta  occ. eigenvalues --   -0.40346  -0.39099  -0.38016  -0.37321  -0.36631
  Beta  occ. eigenvalues --   -0.34258  -0.33975  -0.33288  -0.31240  -0.30486
  Beta  occ. eigenvalues --   -0.29901  -0.28542  -0.28458  -0.27659  -0.27230
  Beta  occ. eigenvalues --   -0.27090  -0.26092  -0.22794
  Beta virt. eigenvalues --   -0.11700  -0.06725  -0.03827  -0.01759  -0.00429
  Beta virt. eigenvalues --    0.00497   0.01069   0.01940   0.02293   0.03013
  Beta virt. eigenvalues --    0.03770   0.03882   0.04012   0.04236   0.04417

 Mulliken charges and spin densities:
               1          2
     1  C    0.210349  -0.000000
     2  C   -0.490899  -0.000000
     3  C   -0.416249  -0.000000
     4  C    0.166044   0.000000
     5  C    0.081062  -0.000000
     6  C    0.149875  -0.000000
     7  C   -0.456509   0.000000
     8  C   -0.540622  -0.000000
     9  C    0.250326  -0.000000
    10  C    0.585701   0.000000
    11  C    0.360629   0.000000
    12  C   -1.259342   0.000000
    13  C   -0.070127   0.000000
    14  C    0.062512  -0.000000
    15  O   -0.306809   0.000000
    16  O   -0.276878  -0.000000
    17  N   -0.418649   0.000000
    18  H    0.186688  -0.000000
    19  H    0.206126  -0.000000
    20  H    0.205630   0.000000
    21  H    0.182026   0.000000
    22  S    0.617196  -0.000000
    23  H    0.241193   0.000000
    24  H    0.353923   0.000000
    25  H    0.291269  -0.000000
    26  H    0.180920   0.000000
    27  O   -0.416504  -0.000000
    28  O   -0.330980  -0.000000
    29  O   -0.347900   0.000000
 Sum of Mulliken charges =  -1.00000  -0.00000

 Dipole moment (field-independent basis, Debye):
    X=              4.3648    Y=            -37.4149    Z=             -3.1816  Tot=             37.8028
 Quadrupole moment (field-independent basis, Debye-Ang):
   XX=           -143.7801   YY=           -422.4927   ZZ=           -126.2525
   XY=             37.5705   XZ=              5.9913   YZ=             -5.3252

  Exact polarizability: 168.086 -19.382 423.016  39.724  62.531 377.664
 Approx polarizability: 202.475 -30.749 463.837  52.162  21.163 444.562

                      1                      2                      3
                      A                      A                      A
 Frequencies --     25.5515                49.1051                70.1060
 Red. masses --      8.2247                12.6700                 9.3973
 Frc consts  --      0.0032                 0.0180                 0.0272
 IR Inten    --      0.3192                 0.3499                13.1569

                      4                      5                      6
                      A                      A                      A
 Frequencies --     88.6806               116.0324               136.1723
 Red. masses --      5.6937                 5.6415                 9.0703
 Frc consts  --      0.0264                 0.0448                 0.0991
 IR Inten    --      1.2278                 0.2833                 8.0734

                      7                      8                      9
                      A                      A                      A
 Frequencies --    171.9042               192.0806               220.7174
 Red. masses --      7.8206                 7.7205                11.8071
 Frc consts  --      0.1362                 0.1678                 0.3389
 IR Inten    --      0.4055                 1.0550                 5.0374

                     10                     11                     12
                      A                      A                      A
 Frequencies --    241.9032               254.1923               302.0183
 Red. masses --      7.3235                 5.6771                 9.4907
 Frc consts  --      0.2525                 0.2161                 0.5101
 IR Inten    --      4.2581                 0.5515                 4.1691

                     13                     14                     15
                      A                      A                      A
 Frequencies --    349.8673               357.6125               390.7159
 Red. masses --      5.3212                 6.9690                 7.2489
 Frc consts  --      0.3838                 0.5251                 0.6520
 IR Inten    --      6.2098                 3.5126                11.1247

                     16                     17                     18
                      A                      A                      A
 Frequencies --    393.1131               426.4354               434.9481
 Red. masses --      8.0838                 3.2726                 7.0862
 Frc consts  --      0.7360                 0.3506                 0.7898
 IR Inten    --     11.0112                 0.3948                51.1162

                     19                     20                     21
                      A                      A                      A
 Frequencies --    446.5730               464.3032               482.0417
 Red. masses --      6.3328                 4.1457                 3.8399
 Frc consts  --      0.7441                 0.5266                 0.5257
 IR Inten    --      0.6089                43.5386               100.3665

                     22                     23                     24
                      A                      A                      A
 Frequencies --    484.9585               513.6614               523.4577
 Red. masses --      3.5378                 4.4305                 3.0876
 Frc consts  --      0.4902                 0.6887                 0.4985
 IR Inten    --    133.8258               137.9663                81.8133

                     25                     26                     27
                      A                      A                      A
 Frequencies --    531.0256               578.1429               583.4340
 Red. masses --      6.1429                 6.1494                 6.7685
 Frc consts  --      1.0206                 1.2110                 1.3575
 IR Inten    --     30.6424                66.6926               116.7446

                     28                     29                     30
                      A                      A                      A
 Frequencies --    607.3615               668.1619               673.0063
 Red. masses --      8.5518                 6.2606                 4.1015
 Frc consts  --      1.8587                 1.6468                 1.0945
 IR Inten    --    146.3879                 1.3313               149.4445

                     31                     32                     33
                      A                      A                      A
 Frequencies --    674.2562               707.6423               709.1661
 Red. masses --      2.7214                 1.6675                 5.6236
 Frc consts  --      0.7289                 0.4920                 1.6663
 IR Inten    --     18.5318                17.2840                 4.5068

                     34                     35                     36
                      A                      A                      A
 Frequencies --    733.7319               751.4852               799.0111
 Red. masses --      2.2018                 4.8944                 4.1356
 Frc consts  --      0.6984                 1.6285                 1.5556
 IR Inten    --     91.9562                61.4084                 0.4520

                     37                     38                     39
                      A                      A                      A
 Frequencies --    801.1706               811.1570               865.2930
 Red. masses --      4.0932                 2.3224                 1.5965
 Frc consts  --      1.5480                 0.9003                 0.7043
 IR Inten    --      4.8561                 2.6341                29.9841

                     40                     41                     42
                      A                      A                      A
 Frequencies --    900.1667               913.8215               943.9506
 Red. masses --      7.2017                 1.4186                 7.2000
 Frc consts  --      3.4382                 0.6980                 3.7799
 IR Inten    --    104.4634                 0.1181                11.8492

                     43                     44                     45
                      A                      A                      A
 Frequencies --    972.5983               987.5532              1002.1175
 Red. masses --      8.5669                 1.3505                 1.3865
 Frc consts  --      4.7746                 0.7760                 0.8204
 IR Inten    --    666.9966                 3.2356                 2.1461

                     46                     47                     48
                      A                      A                      A
 Frequencies --   1022.6027              1031.3833              1058.2414
 Red. masses --      1.3276                 4.0541                 1.9391
 Frc consts  --      0.8179                 2.5409                 1.2795
 IR Inten    --      0.0177                40.8665                 4.9933

                     49                     50                     51
                      A                      A                      A
 Frequencies --   1097.4324              1112.5580              1118.9250
 Red. masses --      4.9462                 2.2777                 4.4061
 Frc consts  --      3.5098                 1.6611                 3.2502
 IR Inten    --    274.3008                14.6795               273.2439

                     52                     53                     54
                      A                      A                      A
 Frequencies --   1138.7702              1159.1292              1175.9829
 Red. masses --      6.1028                 2.0783                 1.3184
 Frc consts  --      4.6628                 1.6452                 1.0742
 IR Inten    --    417.4099               126.4597                26.6575

                     55                     56                     57
                      A                      A                      A
 Frequencies --   1185.3046              1212.8226              1265.8424
 Red. masses --      1.8170                 1.9262                 1.6970
 Frc consts  --      1.5040                 1.6693                 1.6021
 IR Inten    --     11.1948                45.4979                43.2098

                     58                     59                     60
                      A                      A                      A
 Frequencies --   1281.5990              1306.2776              1355.2983
 Red. masses --      4.7536                 1.9317                 4.9543
 Frc consts  --      4.6002                 1.9420                 5.3617
 IR Inten    --   1460.8624               135.8431                 9.0204

                     61                     62                     63
                      A                      A                      A
 Frequencies --   1358.0782              1373.8385              1429.7793
 Red. masses --      6.8905                 8.3650                 3.7594
 Frc consts  --      7.4878                 9.3022                 4.5280
 IR Inten    --     15.7749                21.2215               234.6353

                     64                     65                     66
                      A                      A                      A
 Frequencies --   1473.5188              1482.0339              1506.0790
 Red. masses --      2.9404                 2.5932                 2.6465
 Frc consts  --      3.7615                 3.3559                 3.5369
 IR Inten    --     37.3100                43.9228                 1.2431

                     67                     68                     69
                      A                      A                      A
 Frequencies --   1564.0251              1591.1790              1607.3888
 Red. masses --      4.2576                 2.5632                 6.8045
 Frc consts  --      6.1362                 3.8235                10.3582
 IR Inten    --    442.9790                20.7072               182.1977

                     70                     71                     72
                      A                      A                      A
 Frequencies --   1618.0504              1623.3794              1654.2462
 Red. masses --      3.9820                 3.0402                 6.5411
 Frc consts  --      6.1423                 4.7206                10.5463
 IR Inten    --    686.5156                33.5268               181.4090

                     73                     74                     75
                      A                      A                      A
 Frequencies --   1691.9740              3177.5098              3190.2164
 Red. masses --     11.3098                 1.0874                 1.0917
 Frc consts  --     19.0762                 6.4687                 6.5460
 IR Inten    --    385.6561                 3.7502                13.9430

                     76                     77                     78
                      A                      A                      A
 Frequencies --   3197.7023              3203.4532              3208.3009
 Red. masses --      1.0892                 1.0935                 1.0939
 Frc consts  --      6.5617                 6.6114                 6.6343
 IR Inten    --      1.0682                 9.0466                16.3895

                     79                     80                     81
                      A                      A                      A
 Frequencies --   3215.0471              3474.8021              3596.9082
 Red. masses --      1.0930                 1.0458                 1.1080
 Frc consts  --      6.6564                 7.4398                 8.4461
 IR Inten    --      0.5515               231.5644               430.9253

 - Thermochemistry -
 -------------------
 Temperature   298.150 Kelvin.  Pressure   1.00000 Atm.
 Atom     1 has atomic number  6 and mass  12.00000

 Molecular mass:   302.01232 amu.
 Principal axes and moments of inertia in atomic units:
                           1         2         3
     Eigenvalues --  2355.00948********************
           X            0.02001   0.24808   0.96853
           Y            0.84032  -0.52905   0.11815
           Z            0.54172   0.81152  -0.21905
 This molecule is an asymmetric top.
 Rotational symmetry number  1.
 Warning -- assumption of classical behavior for rotation
           may cause significant error
 Rotational temperatures (Kelvin)      0.03678     0.00777     0.00659
 Rotational constants (GHZ):           0.76634     0.16189     0.13728
 Zero-point vibrational energy     521034.0 (Joules/Mol)
                                  124.53012 (Kcal/Mol)
 Warning -- explicit consideration of  28 degrees of freedom as
           vibrations may cause significant error
 Vibrational temperatures:     36.76    70.65   100.87   127.59   166.94
          (Kelvin)            195.92   247.33   276.36   317.56   348.04
                              365.73   434.54   503.38   514.52   562.15
                              565.60   613.55   625.79   642.52   668.03
                              693.55   697.75   739.04   753.14   764.03
                              831.82   839.43   873.86   961.34   968.31
                              970.10  1018.14  1020.33  1055.68  1081.22
                             1149.60  1152.71  1167.07  1244.96  1295.14
                             1314.79  1358.13  1399.35  1420.87  1441.82
                             1471.30  1483.93  1522.57  1578.96  1600.72
                             1609.88  1638.44  1667.73  1691.98  1705.39
                             1744.98  1821.26  1843.94  1879.44  1949.97
                             1953.97  1976.65  2057.13  2120.06  2132.32
                             2166.91  2250.28  2289.35  2312.67  2328.01
                             2335.68  2380.09  2434.37  4571.73  4590.01
                             4600.78  4609.05  4616.03  4625.74  4999.47
                             5175.15

 Zero-point correction=                           0.198451 (Hartree/Particle)
 Thermal correction to Energy=                    0.214770
 Thermal correction to Enthalpy=                  0.215714
 Thermal correction to Gibbs Free Energy=         0.153842
 Sum of electronic and zero-point Energies=          -1367.618178
 Sum of electronic and thermal Energies=             -1367.601859
 Sum of electronic and thermal Enthalpies=           -1367.600915
 Sum of electronic and thermal Free Energies=        -1367.662788

                     E (Thermal)             CV                S
                      KCal/Mol        Cal/Mol-Kelvin    Cal/Mol-Kelvin
 Total                  134.770             64.699            130.222
 Electronic               0.000              0.000              0.000
 Translational            0.889              2.981             43.013
 Rotational               0.889              2.981             34.200
 Vibrational            132.993             58.738             53.009
 Vibration     1          0.593              1.985              6.148
 Vibration     2          0.595              1.978              4.853
 Vibration     3          0.598              1.968              4.150
 Vibration     4          0.601              1.957              3.689
 Vibration     5          0.608              1.936              3.165
 Vibration     6          0.614              1.917              2.857
 Vibration     7          0.626              1.877              2.415
 Vibration     8          0.634              1.851              2.208
 Vibration     9          0.647              1.810              1.953
 Vibration    10          0.658              1.776              1.789
 Vibration    11          0.665              1.756              1.701
 Vibration    12          0.694              1.670              1.406
 Vibration    13          0.727              1.576              1.167
 Vibration    14          0.733              1.560              1.132
 Vibration    15          0.758              1.490              0.997
 Vibration    16          0.760              1.485              0.988
 Vibration    17          0.788              1.413              0.870
 Vibration    18          0.796              1.394              0.843
 Vibration    19          0.806              1.368              0.806
 Vibration    20          0.822              1.329              0.754
 Vibration    21          0.838              1.290              0.705
 Vibration    22          0.841              1.283              0.697
 Vibration    23          0.869              1.220              0.625
 Vibration    24          0.878              1.198              0.602
 Vibration    25          0.886              1.181              0.585
 Vibration    26          0.935              1.079              0.489
 Vibration    27          0.940              1.067              0.479
 Vibration    28          0.966              1.016              0.437

                           ! Non-Optimized Parameters !
 Normal termination of Gaussian 16 at Sun Feb 11 00:58:53 2024.
