 Gaussian 16, Revision A.03,
 Gaussian 16:  ES64L-G16RevA.03 25-Dec-2016

 --------------------------------------
 #P UB3LYP/6-311++G(d,p) nosym opt freq
 --------------------------------------

 -------
 Reduced
 -------
 Symbolic Z-matrix:
 Charge = -2 Multiplicity = 1

 SCF Done:  E(UB3LYP) =  -652.139035200     A.U. after   58 cycles
 SCF Done:  E(UB3LYP) =  -652.180856807     A.U. after   32 cycles
 SCF Done:  E(UB3LYP) =  -652.183711839     A.U. after   37 cycles
 SCF Done:  E(UB3LYP) =  -652.196561987     A.U. after   41 cycles
 SCF Done:  E(UB3LYP) =  -652.195568914     A.U. after   38 cycles
 SCF Done:  E(UB3LYP) =  -652.194980316     A.U. after   34 cycles
 SCF Done:  E(UB3LYP) =  -652.193204353     A.U. after   31 cycles
 SCF Done:  E(UB3LYP) =  -652.197132239     A.U. after   28 cycles
 SCF Done:  E(UB3LYP) =  -652.199692879     A.U. after   36 cycles
 SCF Done:  E(UB3LYP) =  -652.201106829     A.U. after   34 cycles
 SCF Done:  E(UB3LYP) =  -652.206583326     A.U. after   25 cycles
 SCF Done:  E(UB3LYP) =  -652.206640818     A.U. after   26 cycles
 SCF Done:  E(UB3LYP) =  -652.206727960     A.U. after   29 cycles
 SCF Done:  E(UB3LYP) =  -652.206750693     A.U. after   26 cycles
 SCF Done:  E(UB3LYP) =  -652.206776633     A.U. after   26 cycles
 SCF Done:  E(UB3LYP) =  -652.206786917     A.U. after   23 cycles
 SCF Done:  E(UB3LYP) =  -652.206788379     A.U. after   23 cycles
 SCF Done:  E(UB3LYP) =  -652.206788787     A.U. after   23 cycles
 SCF Done:  E(UB3LYP) =  -652.206789171     A.U. after   24 cycles
 Optimization completed.
    -- Stationary point found.
 Normal termination of Gaussian 16 at Wed Dec 20 04:25:14 2023.

 ----------------------------------------------------------------------
 #P Geom=AllCheck Guess=TCheck SCRF=Check GenChk UB3LYP/6-311++G(d,p) F
 req
 ----------------------------------------------------------------------

 Structure from the checkpoint file:  "061-an.chk"
 -------
 Reduced
 -------
 Charge = -2 Multiplicity = 1

                          Input orientation:
 ---------------------------------------------------------------------
 Center     Atomic      Atomic             Coordinates (Angstroms)
 Number     Number       Type             X           Y           Z
 ---------------------------------------------------------------------
      1          6           0       -0.559796    0.146021    2.118775
      2          6           0       -0.550020   -0.959856    1.186922
      3          6           0        0.171076   -0.954336    0.014006
      4          6           0        1.014779    0.141369   -0.424180
      5          6           0        1.016606    1.276272    0.498855
      6          6           0        0.236439    1.239341    1.691858
      7          8           0       -1.225028    0.105770    3.230240
      8          8           0        1.618223    0.086966   -1.545263
      9          1           0       -1.151918   -1.829283    1.456767
     10          1           0        0.138705   -1.812235   -0.657885
     11          6           0        1.821951    2.458029    0.175629
     12          6           0        1.233391    3.926126    0.369252
     13          6           0       -0.297872    4.001931    0.234704
     14          6           0        1.677904    4.473007    1.744279
     15          6           0        1.855524    4.822887   -0.720459
     16          8           0        2.970167    2.405839   -0.272471
     17          1           0       -0.613784    3.628277   -0.744840
     18          1           0       -0.631475    5.045473    0.327397
     19          1           0       -0.807369    3.400953    0.987516
     20          1           0        1.220792    3.922877    2.569295
     21          1           0        1.398900    5.533360    1.846305
     22          1           0        2.765433    4.398761    1.845905
     23          1           0        1.566920    4.478692   -1.718635
     24          1           0        2.945061    4.797203   -0.669432
     25          1           0        1.513156    5.859892   -0.599759
     26          1           0        0.297854    2.065285    2.394560
 ---------------------------------------------------------------------

 SCF Done:  E(UB3LYP) =  -652.206789171     A.U. after    2 cycles

 Alpha  occ. eigenvalues --  -18.83853 -18.77508 -18.76526  -9.98954  -9.96084
 Alpha  occ. eigenvalues --   -9.94825  -9.94109  -9.94026  -9.93567  -9.92606
 Alpha  occ. eigenvalues --   -9.89443  -9.89142  -9.89013  -9.87989  -0.76721
 Alpha  occ. eigenvalues --   -0.69278  -0.67496  -0.58898  -0.53803  -0.47947
 Alpha  occ. eigenvalues --   -0.47204  -0.46040  -0.40824  -0.37498  -0.33297
 Alpha  occ. eigenvalues --   -0.30064  -0.25759  -0.23054  -0.22096  -0.21701
 Alpha  occ. eigenvalues --   -0.18850  -0.18465  -0.18263  -0.17821  -0.16706
 Alpha  occ. eigenvalues --   -0.15009  -0.13971  -0.13469  -0.12395  -0.11063
 Alpha  occ. eigenvalues --   -0.10628  -0.10446  -0.09277  -0.08626  -0.07085
 Alpha  occ. eigenvalues --   -0.06223   0.00873   0.02017   0.02695   0.05633
 Alpha  occ. eigenvalues --    0.06006   0.13103
 Alpha virt. eigenvalues --    0.14851   0.17180   0.17910   0.18770   0.19225
 Alpha virt. eigenvalues --    0.20668   0.20768   0.21329   0.21898   0.22029
 Alpha virt. eigenvalues --    0.22950   0.24636   0.25206   0.26314   0.26885

  Beta  occ. eigenvalues --  -18.83853 -18.77508 -18.76526  -9.98954  -9.96084
  Beta  occ. eigenvalues --   -9.94825  -9.94109  -9.94026  -9.93567  -9.92606
  Beta  occ. eigenvalues --   -9.89443  -9.89142  -9.89013  -9.87989  -0.76721
  Beta  occ. eigenvalues --   -0.69278  -0.67496  -0.58898  -0.53803  -0.47947
  Beta  occ. eigenvalues --   -0.47204  -0.46040  -0.40824  -0.37498  -0.33297
  Beta  occ. eigenvalues --   -0.30064  -0.25759  -0.23054  -0.22096  -0.21701
  Beta  occ. eigenvalues --   -0.18850  -0.18465  -0.18263  -0.17821  -0.16706
  Beta  occ. eigenvalues --   -0.15009  -0.13971  -0.13469  -0.12395  -0.11063
  Beta  occ. eigenvalues --   -0.10628  -0.10446  -0.09277  -0.08626  -0.07085
  Beta  occ. eigenvalues --   -0.06223   0.00873   0.02017   0.02695   0.05633
  Beta  occ. eigenvalues --    0.06006   0.13103
  Beta virt. eigenvalues --    0.14851   0.17180   0.17910   0.18770   0.19225
  Beta virt. eigenvalues --    0.20668   0.20768   0.21329   0.21898   0.22029
  Beta virt. eigenvalues --    0.22950   0.24636   0.25206   0.26314   0.26885

 Mulliken charges and spin densities:
               1          2
     1  C   -1.024835   0.000000
     2  C    0.257379  -0.000000
     3  C    0.338679   0.000000
     4  C   -0.946168  -0.000000
     5  C    2.150251   0.000000
     6  C   -0.452876  -0.000000
     7  O   -0.555299  -0.000000
     8  O   -0.472939   0.000000
     9  H    0.076680   0.000000
    10  H    0.079017  -0.000000
    11  C   -1.070251  -0.000000
    12  C    0.430467   0.000000
    13  C   -0.621009   0.000000
    14  C    0.006607  -0.000000
    15  C   -0.194392  -0.000000
    16  O   -0.237959   0.000000
    17  H    0.114431   0.000000
    18  H    0.014578   0.000000
    19  H    0.151796   0.000000
    20  H    0.110050  -0.000000
    21  H   -0.278248  -0.000000
    22  H    0.094526   0.000000
    23  H    0.140492  -0.000000
    24  H    0.092178   0.000000
    25  H   -0.316826   0.000000
    26  H    0.113671  -0.000000
 Sum of Mulliken charges =  -2.00000   0.00000

 Dipole moment (field-independent basis, Debye):
    X=             -6.9106    Y=            -12.6775    Z=             -7.1099  Tot=             16.0943
 Quadrupole moment (field-independent basis, Debye-Ang):
   XX=           -130.1515   YY=           -169.0443   ZZ=           -143.7824
   XY=            -22.8636   XZ=             22.5914   YZ=             -4.6859

  Exact polarizability: 335.843 193.9321440.626 -25.657 -54.650 504.187
 Approx polarizability: 431.941 564.8923795.972 -80.319-122.615 464.504

                      1                      2                      3
                      A                      A                      A
 Frequencies --     31.0167                53.4309                78.9618
 Red. masses --      6.0487                 3.0098                 4.4442
 Frc consts  --      0.0034                 0.0051                 0.0163
 IR Inten    --      3.9827                 0.4372                 4.8198

                      4                      5                      6
                      A                      A                      A
 Frequencies --    119.7605               153.3421               191.4642
 Red. masses --      7.4539                 8.7515                 1.0868
 Frc consts  --      0.0630                 0.1212                 0.0235
 IR Inten    --      8.5365                 4.9869                 0.2702

                      7                      8                      9
                      A                      A                      A
 Frequencies --    220.9727               242.1322               252.1532
 Red. masses --      1.5840                 2.1208                 1.3273
 Frc consts  --      0.0456                 0.0733                 0.0497
 IR Inten    --      1.1975                 0.7977                 8.2135

                     10                     11                     12
                      A                      A                      A
 Frequencies --    276.1046               289.5057               323.4508
 Red. masses --      2.1037                 2.3060                 6.0077
 Frc consts  --      0.0945                 0.1139                 0.3703
 IR Inten    --      7.7974                 2.8041                 3.5371

                     13                     14                     15
                      A                      A                      A
 Frequencies --    363.1903               366.8342               392.0529
 Red. masses --      3.4023                 3.6910                 2.4472
 Frc consts  --      0.2644                 0.2926                 0.2216
 IR Inten    --     30.4432                21.3374                 1.5668

                     16                     17                     18
                      A                      A                      A
 Frequencies --    408.6044               427.3300               460.7712
 Red. masses --      6.5973                 3.1745                10.3522
 Frc consts  --      0.6490                 0.3415                 1.2950
 IR Inten    --    102.7515                30.8227               687.0021

                     19                     20                     21
                      A                      A                      A
 Frequencies --    490.7591               537.9443               575.6295
 Red. masses --      4.0179                 2.7426                 3.0330
 Frc consts  --      0.5701                 0.4676                 0.5921
 IR Inten    --     31.2725                 2.1160                12.1056

                     22                     23                     24
                      A                      A                      A
 Frequencies --    578.9490               682.0159               716.7898
 Red. masses --      4.3233                 6.3808                 3.5281
 Frc consts  --      0.8538                 1.7487                 1.0680
 IR Inten    --      5.7456                31.2275                24.7890

                     25                     26                     27
                      A                      A                      A
 Frequencies --    753.0792               791.8303               812.5014
 Red. masses --      3.1395                 3.2774                 2.6340
 Frc consts  --      1.0490                 1.2107                 1.0245
 IR Inten    --      3.2190                33.8352                10.1405

                     28                     29                     30
                      A                      A                      A
 Frequencies --    815.7488               827.3713               861.0897
 Red. masses --      4.1207                 2.0215                 4.7007
 Frc consts  --      1.6156                 0.8153                 2.0536
 IR Inten    --     39.1157                40.3199               135.2123

                     31                     32                     33
                      A                      A                      A
 Frequencies --    916.6895               927.3947               933.5784
 Red. masses --      1.2920                 1.9215                 1.6546
 Frc consts  --      0.6397                 0.9737                 0.8497
 IR Inten    --      1.8404                47.0874                26.4393

                     34                     35                     36
                      A                      A                      A
 Frequencies --    949.9762               957.9617              1032.0659
 Red. masses --      2.5558                 1.2224                 1.4719
 Frc consts  --      1.3589                 0.6609                 0.9237
 IR Inten    --     13.2068                 3.4614                88.5157

                     37                     38                     39
                      A                      A                      A
 Frequencies --   1041.7573              1083.2070              1146.2875
 Red. masses --      1.4622                 2.0461                 1.7323
 Frc consts  --      0.9349                 1.4145                 1.3411
 IR Inten    --     58.4704               490.4966                27.0257

                     40                     41                     42
                      A                      A                      A
 Frequencies --   1196.3874              1210.1398              1229.1724
 Red. masses --      2.2451                 2.6279                 2.4239
 Frc consts  --      1.8933                 2.2674                 2.1577
 IR Inten    --    452.8017                 7.0624                66.0389

                     43                     44                     45
                      A                      A                      A
 Frequencies --   1242.6174              1244.9068              1310.7239
 Red. masses --      2.2085                 3.7173                 2.6628
 Frc consts  --      2.0092                 3.3943                 2.6953
 IR Inten    --    136.2025                30.7933                74.8003

                     46                     47                     48
                      A                      A                      A
 Frequencies --   1361.9401              1368.4311              1379.9227
 Red. masses --      5.1549                 1.2738                 1.2354
 Frc consts  --      5.6336                 1.4054                 1.3861
 IR Inten    --    395.3821               300.5950                19.7918

                     49                     50                     51
                      A                      A                      A
 Frequencies --   1409.4487              1413.2924              1444.0873
 Red. masses --      1.2385                 5.9496                 3.6300
 Frc consts  --      1.4495                 7.0017                 4.4601
 IR Inten    --     54.1383               414.8318               673.9853

                     52                     53                     54
                      A                      A                      A
 Frequencies --   1463.1499              1479.3693              1481.0725
 Red. masses --      1.0536                 1.5991                 1.6242
 Frc consts  --      1.3289                 2.0620                 2.0992
 IR Inten    --      2.5342               180.1734               362.1438

                     55                     56                     57
                      A                      A                      A
 Frequencies --   1484.4808              1489.8006              1492.5114
 Red. masses --      1.0981                 1.0984                 1.0752
 Frc consts  --      1.4257                 1.4364                 1.4111
 IR Inten    --     13.9279                66.3188                30.7558

                     58                     59                     60
                      A                      A                      A
 Frequencies --   1514.9415              1588.9632              1627.5261
 Red. masses --      1.0556                 5.8853                10.5283
 Frc consts  --      1.4274                 8.7548                16.4310
 IR Inten    --     49.9651              2678.8818              1652.3210

                     61                     62                     63
                      A                      A                      A
 Frequencies --   2956.6620              2973.1241              2984.9963
 Red. masses --      1.0545                 1.0509                 1.0490
 Frc consts  --      5.4314                 5.4730                 5.5068
 IR Inten    --     59.5394                55.0241                89.4226

                     64                     65                     66
                      A                      A                      A
 Frequencies --   3046.8971              3049.3786              3056.8550
 Red. masses --      1.0812                 1.0886                 1.0886
 Frc consts  --      5.9137                 5.9640                 5.9936
 IR Inten    --     15.2453                19.9244                71.5746

                     67                     68                     69
                      A                      A                      A
 Frequencies --   3071.5889              3093.7300              3100.3515
 Red. masses --      1.0834                 1.0981                 1.0967
 Frc consts  --      6.0224                 6.1923                 6.2107
 IR Inten    --     99.2544                12.0458                13.1339

                     70                     71                     72
                      A                      A                      A
 Frequencies --   3103.1240              3111.6853              3140.2256
 Red. masses --      1.0926                 1.0954                 1.0851
 Frc consts  --      6.1987                 6.2488                 6.3044
 IR Inten    --    565.1994                14.0921               104.1082

 - Thermochemistry -
 -------------------
 Temperature   298.150 Kelvin.  Pressure   1.00000 Atm.
 Atom     1 has atomic number  6 and mass  12.00000

 Molecular mass:   192.07864 amu.
 Principal axes and moments of inertia in atomic units:
                           1         2         3
     Eigenvalues --  1724.756613467.622264585.23538
           X            0.39801  -0.46174   0.79271
           Y            0.88331   0.42620  -0.19525
           Z           -0.24770   0.77792   0.57749
 This molecule is an asymmetric top.
 Rotational symmetry number  1.
 Warning -- assumption of classical behavior for rotation
           may cause significant error
 Rotational temperatures (Kelvin)      0.05022     0.02498     0.01889
 Rotational constants (GHZ):           1.04637     0.52045     0.39360
 Zero-point vibrational energy     527584.3 (Joules/Mol)
                                  126.09568 (Kcal/Mol)
 Warning -- explicit consideration of  22 degrees of freedom as
           vibrations may cause significant error
 Vibrational temperatures:     44.63    76.88   113.61   172.31   220.63
          (Kelvin)            275.47   317.93   348.37   362.79   397.25
                              416.53   465.37   522.55   527.79   564.08
                              587.89   614.83   662.95   706.09   773.98
                              828.20   832.98   981.27  1031.30  1083.51
                             1139.27  1169.01  1173.68  1190.40  1238.92
                             1318.91  1334.31  1343.21  1366.80  1378.29
                             1484.91  1498.86  1558.49  1649.25  1721.33
                             1741.12  1768.50  1787.85  1791.14  1885.84
                             1959.53  1968.87  1985.40  2027.88  2033.41
                             2077.72  2105.15  2128.48  2130.93  2135.84
                             2143.49  2147.39  2179.66  2286.16  2341.65
                             4253.98  4277.66  4294.74  4383.81  4387.38
                             4398.13  4419.33  4451.19  4460.71  4464.70
                             4477.02  4518.08

 Zero-point correction=                           0.200946 (Hartree/Particle)
 Thermal correction to Energy=                    0.214777
 Thermal correction to Enthalpy=                  0.215721
 Thermal correction to Gibbs Free Energy=         0.160340
 Sum of electronic and zero-point Energies=           -652.005843
 Sum of electronic and thermal Energies=              -651.992012
 Sum of electronic and thermal Enthalpies=            -651.991068
 Sum of electronic and thermal Free Energies=         -652.046449

                     E (Thermal)             CV                S
                      KCal/Mol        Cal/Mol-Kelvin    Cal/Mol-Kelvin
 Total                  134.775             52.663            116.559
 Electronic               0.000              0.000              0.000
 Translational            0.889              2.981             41.664
 Rotational               0.889              2.981             31.684
 Vibrational            132.997             46.701             43.212
 Vibration     1          0.594              1.983              5.763
 Vibration     2          0.596              1.976              4.686
 Vibration     3          0.600              1.963              3.917
 Vibration     4          0.609              1.933              3.104
 Vibration     5          0.619              1.899              2.630
 Vibration     6          0.634              1.852              2.214
 Vibration     7          0.648              1.809              1.951
 Vibration     8          0.658              1.776              1.787
 Vibration     9          0.664              1.759              1.715
 Vibration    10          0.678              1.718              1.558
 Vibration    11          0.686              1.693              1.477
 Vibration    12          0.708              1.629              1.293
 Vibration    13          0.737              1.548              1.108
 Vibration    14          0.740              1.540              1.093
 Vibration    15          0.759              1.487              0.992
 Vibration    16          0.773              1.452              0.932
 Vibration    17          0.789              1.411              0.867
 Vibration    18          0.819              1.337              0.764
 Vibration    19          0.847              1.271              0.682
 Vibration    20          0.893              1.166              0.570
 Vibration    21          0.932              1.084              0.494
 Vibration    22          0.936              1.077              0.487

 Optimization completed.
    -- Stationary point found.
 Normal termination of Gaussian 16 at Wed Dec 20 04:57:29 2023.
