 Gaussian 16, Revision A.03,
 Gaussian 16:  ES64L-G16RevA.03 25-Dec-2016

 --------------------------------------
 #P UB3LYP/6-311++G(d,p) nosym opt freq
 --------------------------------------

 -------
 Radical
 -------
 Symbolic Z-matrix:
 Charge = -1 Multiplicity = 2

 SCF Done:  E(UB3LYP) =  -460.275687682     A.U. after   22 cycles
 SCF Done:  E(UB3LYP) =  -460.296419250     A.U. after   17 cycles
 SCF Done:  E(UB3LYP) =  -460.297484753     A.U. after   15 cycles
 SCF Done:  E(UB3LYP) =  -460.297583304     A.U. after   14 cycles
 SCF Done:  E(UB3LYP) =  -460.297758987     A.U. after   14 cycles
 SCF Done:  E(UB3LYP) =  -460.297847300     A.U. after   15 cycles
 SCF Done:  E(UB3LYP) =  -460.298013922     A.U. after   14 cycles
 SCF Done:  E(UB3LYP) =  -460.298318695     A.U. after   15 cycles
 SCF Done:  E(UB3LYP) =  -460.298727428     A.U. after   15 cycles
 SCF Done:  E(UB3LYP) =  -460.298755978     A.U. after   14 cycles
 SCF Done:  E(UB3LYP) =  -460.298767908     A.U. after   13 cycles
 SCF Done:  E(UB3LYP) =  -460.298776026     A.U. after   12 cycles
 SCF Done:  E(UB3LYP) =  -460.298782271     A.U. after   12 cycles
 SCF Done:  E(UB3LYP) =  -460.298793101     A.U. after   12 cycles
 SCF Done:  E(UB3LYP) =  -460.298795969     A.U. after   12 cycles
 SCF Done:  E(UB3LYP) =  -460.298796065     A.U. after   10 cycles
 Optimization completed.
    -- Stationary point found.
 Normal termination of Gaussian 16 at Sun Dec 17 21:19:29 2023.

 ----------------------------------------------------------------------
 #P Geom=AllCheck Guess=TCheck SCRF=Check GenChk UB3LYP/6-311++G(d,p) F
 req
 ----------------------------------------------------------------------

 Structure from the checkpoint file:  "038-rad.chk"
 -------
 Radical
 -------
 Charge = -1 Multiplicity = 2

                          Input orientation:
 ---------------------------------------------------------------------
 Center     Atomic      Atomic             Coordinates (Angstroms)
 Number     Number       Type             X           Y           Z
 ---------------------------------------------------------------------
      1          6           0        2.919663    0.259563   -0.079357
      2          6           0        1.422719    0.106845   -0.027499
      3          6           0        0.817914   -0.968407    0.574351
      4          6           0       -0.614995   -1.151784    0.645446
      5          8           0       -1.141207   -2.157424    1.209237
      6          6           0       -1.422721   -0.106817    0.027438
      7          6           0       -0.817938    0.968381   -0.574423
      8          6           0        0.615010    1.151743   -0.645535
      9          8           0        1.141148    2.157401   -1.209388
     10          6           0       -2.919667   -0.259535    0.079448
     11          1           0        3.417896   -0.580378    0.413991
     12          1           0        3.236569    1.191594    0.401689
     13          1           0        3.272762    0.322414   -1.114679
     14          1           0        1.417699   -1.749968    1.036478
     15          1           0       -1.417661    1.749966   -1.036592
     16          1           0       -3.272616   -0.322469    1.114812
     17          1           0       -3.417930    0.580426   -0.413822
     18          1           0       -3.236643   -1.191551   -0.401594
 ---------------------------------------------------------------------

 SCF Done:  E(UB3LYP) =  -460.298796065     A.U. after    1 cycles

 Alpha  occ. eigenvalues --  -18.92625 -18.92624 -10.07009 -10.07008 -10.03421
 Alpha  occ. eigenvalues --  -10.03420 -10.03065 -10.03063 -10.01748 -10.01747
 Alpha  occ. eigenvalues --   -0.84703  -0.84427  -0.68535  -0.64272  -0.57976
 Alpha  occ. eigenvalues --   -0.55269  -0.50236  -0.44847  -0.40066  -0.34467
 Alpha  occ. eigenvalues --   -0.31428  -0.29534  -0.29422  -0.28313  -0.27303
 Alpha  occ. eigenvalues --   -0.26221  -0.25036  -0.24247  -0.23599  -0.21805
 Alpha  occ. eigenvalues --   -0.21757  -0.20919  -0.13032  -0.10622  -0.09191
 Alpha  occ. eigenvalues --   -0.08696  -0.01261
 Alpha virt. eigenvalues --    0.09634   0.09795   0.11934   0.12400   0.12577
 Alpha virt. eigenvalues --    0.13564   0.14134   0.14734   0.15275   0.16966
 Alpha virt. eigenvalues --    0.17131   0.17549   0.19136   0.19400   0.20602

  Beta  occ. eigenvalues --  -18.91906 -18.91905 -10.06887 -10.06886 -10.03431
  Beta  occ. eigenvalues --  -10.03431 -10.02929 -10.02928 -10.01657 -10.01656
  Beta  occ. eigenvalues --   -0.83468  -0.83153  -0.67955  -0.64044  -0.57813
  Beta  occ. eigenvalues --   -0.54713  -0.49598  -0.44455  -0.39662  -0.34286
  Beta  occ. eigenvalues --   -0.31027  -0.29238  -0.28865  -0.28075  -0.27170
  Beta  occ. eigenvalues --   -0.26113  -0.24435  -0.24073  -0.22028  -0.21389
  Beta  occ. eigenvalues --   -0.20659  -0.18931  -0.09816  -0.09630  -0.08514
  Beta  occ. eigenvalues --   -0.08039
  Beta virt. eigenvalues --    0.05978   0.09631   0.09790   0.11940   0.12581
  Beta virt. eigenvalues --    0.12828   0.13572   0.14201   0.15268   0.15678
  Beta virt. eigenvalues --    0.17141   0.17576   0.18716   0.19211   0.19403

 Mulliken charges and spin densities:
               1          2
     1  C   -0.447200   0.003315
     2  C    1.355200   0.104012
     3  C   -0.528584   0.051646
     4  C   -0.989274   0.078655
     5  O   -0.411885   0.260593
     6  C    1.355127   0.103975
     7  C   -0.528734   0.051601
     8  C   -0.989373   0.078649
     9  O   -0.411890   0.260607
    10  C   -0.447179   0.003316
    11  H    0.116651  -0.000320
    12  H    0.147969   0.005123
    13  H    0.147955   0.005125
    14  H    0.109313  -0.008113
    15  H    0.109326  -0.008110
    16  H    0.147963   0.005123
    17  H    0.116644  -0.000320
    18  H    0.147971   0.005122
 Sum of Mulliken charges =  -1.00000   1.00000

 Dipole moment (field-independent basis, Debye):
    X=              0.0000    Y=              0.0000    Z=              0.0004  Tot=              0.0004
 Quadrupole moment (field-independent basis, Debye-Ang):
   XX=            -72.0033   YY=            -87.7038   ZZ=            -71.3758
   XY=            -12.2923   XZ=              6.8521   YZ=             13.3603

  Exact polarizability: 148.696  20.923 131.119 -10.116 -34.704  89.347
 Approx polarizability: 198.338  45.882 225.714 -24.071 -68.318 143.186

                      1                      2                      3
                      A                      A                      A
 Frequencies --     99.2339               116.7175               119.7104
 Red. masses --      4.6380                 1.0521                 1.0443
 Frc consts  --      0.0269                 0.0084                 0.0088
 IR Inten    --     11.5375                 0.0050                 0.0000

                      4                      5                      6
                      A                      A                      A
 Frequencies --    167.4787               233.8394               279.0995
 Red. masses --      3.9856                 3.7590                 2.6346
 Frc consts  --      0.0659                 0.1211                 0.1209
 IR Inten    --      1.0833                 0.0000                 4.7554

                      7                      8                      9
                      A                      A                      A
 Frequencies --    287.6073               358.8107               381.3037
 Red. masses --      3.6149                 4.9604                 9.8826
 Frc consts  --      0.1762                 0.3763                 0.8466
 IR Inten    --      0.0000                 0.0000                11.9910

                     10                     11                     12
                      A                      A                      A
 Frequencies --    423.9422               427.3045               508.6238
 Red. masses --      5.5767                 2.9334                 8.6743
 Frc consts  --      0.5905                 0.3156                 1.3221
 IR Inten    --      0.0000                 1.8811                 0.0000

                     13                     14                     15
                      A                      A                      A
 Frequencies --    616.9113               664.2980               708.8202
 Red. masses --      3.6431                 3.3792                 5.2222
 Frc consts  --      0.8169                 0.8786                 1.5459
 IR Inten    --      0.0000                 0.9307                22.2141

                     16                     17                     18
                      A                      A                      A
 Frequencies --    710.2069               743.1023               834.1559
 Red. masses --      6.3238                 3.8991                 2.6589
 Frc consts  --      1.8793                 1.2686                 1.0900
 IR Inten    --      0.0000                 0.0000                 4.2008

                     19                     20                     21
                      A                      A                      A
 Frequencies --    844.4705               883.5260              1006.1302
 Red. masses --      1.3667                 1.5682                 1.6377
 Frc consts  --      0.5742                 0.7212                 0.9768
 IR Inten    --      0.0000                38.2984                49.3485

                     22                     23                     24
                      A                      A                      A
 Frequencies --   1019.7876              1044.5326              1051.8234
 Red. masses --      1.4550                 1.4666                 1.4979
 Frc consts  --      0.8915                 0.9428                 0.9764
 IR Inten    --      0.0000                 0.0000                 1.7379

                     25                     26                     27
                      A                      A                      A
 Frequencies --   1117.2920              1157.7131              1204.2705
 Red. masses --      5.2479                 2.5040                 5.6929
 Frc consts  --      3.8598                 1.9774                 4.8644
 IR Inten    --      0.0000                25.6752                24.7038

                     28                     29                     30
                      A                      A                      A
 Frequencies --   1237.5363              1327.0536              1393.8821
 Red. masses --      1.3260                 2.2697                 1.3041
 Frc consts  --      1.1965                 2.3550                 1.4929
 IR Inten    --      0.0000                16.1940                20.0056

                     31                     32                     33
                      A                      A                      A
 Frequencies --   1395.4215              1438.2529              1463.9141
 Red. masses --      1.2740                 5.0220                 1.0468
 Frc consts  --      1.4617                 6.1207                 1.3217
 IR Inten    --      0.0002                 0.0000                 0.0256

                     34                     35                     36
                      A                      A                      A
 Frequencies --   1464.0551              1474.4196              1482.3624
 Red. masses --      1.0466                 1.3951                 1.4067
 Frc consts  --      1.3218                 1.7869                 1.8212
 IR Inten    --      7.7279                39.6972                 0.0000

                     37                     38                     39
                      A                      A                      A
 Frequencies --   1500.1889              1519.7385              1542.0408
 Red. masses --      3.6176                 3.5547                 4.1619
 Frc consts  --      4.7969                 4.8371                 5.8309
 IR Inten    --      0.0004               440.1861                71.7876

                     40                     41                     42
                      A                      A                      A
 Frequencies --   1648.7698              3003.1543              3004.1894
 Red. masses --      6.6523                 1.0342                 1.0342
 Frc consts  --     10.6547                 5.4954                 5.4993
 IR Inten    --      0.0000               177.4929                 0.0039

                     43                     44                     45
                      A                      A                      A
 Frequencies --   3044.7803              3045.0207              3073.3493
 Red. masses --      1.0988                 1.0987                 1.1023
 Frc consts  --      6.0018                 6.0023                 6.1344
 IR Inten    --      0.0088                72.5191                12.1703

                     46                     47                     48
                      A                      A                      A
 Frequencies --   3073.4052              3123.4420              3126.7204
 Red. masses --      1.1022                 1.0884                 1.0890
 Frc consts  --      6.1341                 6.2561                 6.2728
 IR Inten    --     44.6946                84.5818                 0.0000

 - Thermochemistry -
 -------------------
 Temperature   298.150 Kelvin.  Pressure   1.00000 Atm.
 Atom     1 has atomic number  6 and mass  12.00000

 Molecular mass:   136.05243 amu.
 Principal axes and moments of inertia in atomic units:
                           1         2         3
     Eigenvalues --   773.379591649.962802401.34439
           X            0.84883  -0.52827  -0.02060
           Y            0.46713   0.73120   0.49713
           Z           -0.24755  -0.43160   0.86743
 This molecule is an asymmetric top.
 Rotational symmetry number  1.
 Warning -- assumption of classical behavior for rotation
           may cause significant error
 Rotational temperatures (Kelvin)      0.11199     0.05249     0.03607
 Rotational constants (GHZ):           2.33358     1.09381     0.75155
 Zero-point vibrational energy     361226.8 (Joules/Mol)
                                   86.33528 (Kcal/Mol)
 Warning -- explicit consideration of  13 degrees of freedom as
           vibrations may cause significant error
 Vibrational temperatures:    142.78   167.93   172.24   240.96   336.44
          (Kelvin)            401.56   413.80   516.25   548.61   609.96
                              614.80   731.80   887.60   955.78  1019.83
                             1021.83  1069.16  1200.16  1215.00  1271.20
                             1447.60  1467.25  1502.85  1513.34  1607.53
                             1665.69  1732.68  1780.54  1909.33  2005.49
                             2007.70  2069.33  2106.25  2106.45  2121.36
                             2132.79  2158.44  2186.56  2218.65  2372.21
                             4320.87  4322.36  4380.76  4381.11  4421.86
                             4421.94  4493.94  4498.65

 Zero-point correction=                           0.137584 (Hartree/Particle)
 Thermal correction to Energy=                    0.147088
 Thermal correction to Enthalpy=                  0.148033
 Thermal correction to Gibbs Free Energy=         0.102448
 Sum of electronic and zero-point Energies=           -460.161212
 Sum of electronic and thermal Energies=              -460.151708
 Sum of electronic and thermal Enthalpies=            -460.150763
 Sum of electronic and thermal Free Energies=         -460.196348

                     E (Thermal)             CV                S
                      KCal/Mol        Cal/Mol-Kelvin    Cal/Mol-Kelvin
 Total                   92.299             35.248             95.942
 Electronic               0.000              0.000              1.377
 Translational            0.889              2.981             40.636
 Rotational               0.889              2.981             29.506
 Vibrational             90.522             29.286             24.422
 Vibration     1          0.604              1.950              3.469
 Vibration     2          0.608              1.935              3.154
 Vibration     3          0.609              1.933              3.105
 Vibration     4          0.624              1.882              2.464
 Vibration     5          0.654              1.789              1.849
 Vibration     6          0.679              1.712              1.539
 Vibration     7          0.685              1.697              1.488
 Vibration     8          0.734              1.557              1.127
 Vibration     9          0.751              1.510              1.034
 Vibration    10          0.786              1.418              0.879
 Vibration    11          0.789              1.411              0.868
 Vibration    12          0.864              1.231              0.637
 Vibration    13          0.977              0.996              0.421

 Optimization completed.
    -- Stationary point found.
 Normal termination of Gaussian 16 at Sun Dec 17 21:34:04 2023.
