 Gaussian 16, Revision A.03,
 Gaussian 16:  ES64L-G16RevA.03 25-Dec-2016

 ----------------------------------------------------------------
 #P UB3LYP/6-311++G(d,p) SCRF=(PCM,Solvent=n,n-DiMethylFormamide)
 ----------------------------------------------------------------

 ------------------
 Radical PCM in DMF
 ------------------
 Symbolic Z-matrix:
 Charge = -1 Multiplicity = 2

                         Standard orientation:
 ---------------------------------------------------------------------
 Center     Atomic      Atomic             Coordinates (Angstroms)
 Number     Number       Type             X           Y           Z
 ---------------------------------------------------------------------
      1          8           0        2.718891    0.866998   -0.000036
      2          6           0        1.770109   -0.093722   -0.000002
      3          6           0        2.150056   -1.433278    0.000066
      4          6           0        1.172215   -2.437532    0.000053
      5          6           0       -0.176857   -2.119666   -0.000022
      6          6           0       -0.586598   -0.774798   -0.000079
      7          6           0       -2.029456   -0.447252   -0.000119
      8          8           0       -2.912306   -1.344108    0.000005
      9          6           0       -2.353635    0.954620    0.000028
     10          6           0       -1.399276    1.948732    0.000102
     11          6           0        0.000086    1.666770    0.000045
     12          8           0        0.884959    2.597608   -0.000065
     13          6           0        0.389066    0.258598   -0.000020
     14          1           0        2.202113    1.737023   -0.000022
     15          1           0        3.207966   -1.672296    0.000085
     16          1           0        1.482766   -3.478749    0.000107
     17          1           0       -0.944553   -2.883716   -0.000023
     18          1           0       -3.411277    1.202011    0.000107
     19          1           0       -1.683628    2.996915    0.000205
 ---------------------------------------------------------------------

 SCF Done:  E(UB3LYP) =  -610.674677290     A.U. after   19 cycles

 The electronic state is 2-A.
 Alpha  occ. eigenvalues --  -19.13194 -19.09320 -19.08090 -10.23615 -10.23245
 Alpha  occ. eigenvalues --  -10.22612 -10.17792 -10.17692 -10.17683 -10.16788
 Alpha  occ. eigenvalues --  -10.16781 -10.16719 -10.16478  -1.05540  -1.00596
 Alpha  occ. eigenvalues --   -1.00387  -0.85727  -0.80716  -0.74623  -0.74192
 Alpha  occ. eigenvalues --   -0.68100  -0.62877  -0.61611  -0.57259  -0.51438
 Alpha  occ. eigenvalues --   -0.50786  -0.50040  -0.47576  -0.44998  -0.43122
 Alpha  occ. eigenvalues --   -0.43096  -0.42232  -0.40174  -0.39335  -0.39324
 Alpha  occ. eigenvalues --   -0.37994  -0.37964  -0.35964  -0.34850  -0.33216
 Alpha  occ. eigenvalues --   -0.28447  -0.25810  -0.25578  -0.24300  -0.23112
 Alpha  occ. eigenvalues --   -0.15973
 Alpha virt. eigenvalues --   -0.02646  -0.02089   0.00021   0.01014   0.01469
 Alpha virt. eigenvalues --    0.02715   0.03251   0.04528   0.04924   0.05074
 Alpha virt. eigenvalues --    0.05535   0.06772   0.07163   0.07796   0.07999

  Beta  occ. eigenvalues --  -19.13169 -19.08763 -19.07454 -10.23599 -10.23026
  Beta  occ. eigenvalues --  -10.22485 -10.17747 -10.17694 -10.17657 -10.16733
  Beta  occ. eigenvalues --  -10.16639 -10.16538 -10.16448  -1.05405  -0.99651
  Beta  occ. eigenvalues --   -0.99292  -0.85510  -0.80179  -0.74403  -0.73976
  Beta  occ. eigenvalues --   -0.67156  -0.62618  -0.61369  -0.57027  -0.51279
  Beta  occ. eigenvalues --   -0.50587  -0.49735  -0.47282  -0.44903  -0.42883
  Beta  occ. eigenvalues --   -0.42258  -0.41790  -0.39861  -0.39099  -0.37914
  Beta  occ. eigenvalues --   -0.37881  -0.35795  -0.35695  -0.34693  -0.32433
  Beta  occ. eigenvalues --   -0.25665  -0.25335  -0.25050  -0.23733  -0.22308
  Beta virt. eigenvalues --   -0.09422  -0.01601  -0.00950   0.00042   0.01025
  Beta virt. eigenvalues --    0.01495   0.02736   0.03269   0.04845   0.05116
  Beta virt. eigenvalues --    0.05548   0.06012   0.06800   0.07547   0.07998

 Mulliken charges and spin densities:
               1          2
     1  O   -0.400807   0.008553
     2  C   -0.091988   0.033840
     3  C   -0.153953   0.038104
     4  C   -0.349076   0.025928
     5  C   -0.122317   0.047400
     6  C    0.420500   0.032170
     7  C   -0.449873   0.082225
     8  O   -0.486268   0.229456
     9  C   -0.056240   0.144751
    10  C   -0.189182   0.065265
    11  C   -0.431632   0.136060
    12  O   -0.525421   0.196860
    13  C    0.562180  -0.007085
    14  H    0.364285  -0.004227
    15  H    0.187114  -0.003301
    16  H    0.190199  -0.002047
    17  H    0.160522  -0.003384
    18  H    0.184750  -0.011616
    19  H    0.187207  -0.008953
 Sum of Mulliken charges =  -1.00000   1.00000

 Dipole moment (field-independent basis, Debye):
    X=              2.4077    Y=             -1.8174    Z=              0.0003  Tot=              3.0167
 Quadrupole moment (field-independent basis, Debye-Ang):
   XX=           -106.2569   YY=            -92.5509   ZZ=            -80.4839
   XY=            -18.7119   XZ=              0.0003   YZ=              0.0007

 Normal termination of Gaussian 16 at Sun Jan 21 08:37:27 2024.
