 Q-Chem 5.4, Q-Chem, Inc., Pleasanton, CA (2021)
 Q-Chem 5.4.0 for Intel X86 EM64T Linux

User input:
--------------------------------------------------------------
$molecule
-1 2
N                 -2.8223150000      1.5163910000      1.2052100000
C                 -2.4829800000      0.5248780000      0.3310390000
C                 -3.4518600000     -0.2019410000     -0.3620320000
Br                -5.3241000000      0.2469000000     -0.1444110000
C                 -3.1382620000     -1.2544890000     -1.2194840000
C                 -1.8211590000     -1.6223040000     -1.3974440000
Br                -1.6068700000     -3.0979960000     -2.6361610000
C                 -0.7561040000     -0.9454720000     -0.7460000000
C                  0.6490710000     -1.3462970000     -0.9228570000
O                  0.9948250000     -2.3409890000     -1.5943800000
C                  1.6681110000     -0.5199450000     -0.2668580000
C                  3.0294280000     -0.8484250000     -0.4430390000
C                  4.0242430000     -0.0971750000      0.1503700000
C                  3.6839410000      1.0153570000      0.9487990000
C                  2.3578250000      1.3501460000      1.1345100000
C                  1.3277120000      0.5927760000      0.5334420000
C                 -0.0629300000      0.9708000000      0.7594820000
O                 -0.3142200000      1.9779760000      1.4929010000
C                 -1.0980960000      0.1688300000      0.1141500000
H                 -2.0303960000      2.0745050000      1.5356460000
H                 -3.7582350000      1.8836770000      1.1626550000
H                 -3.9253960000     -1.7807320000     -1.7398310000
H                  3.2585380000     -1.7085390000     -1.0605820000
H                  5.0672510000     -0.3610950000      0.0037500000
H                  4.4652850000      1.6063350000      1.4171790000
H                  2.0666950000      2.1968310000      1.7439470000
$end
$rem
MAX_SCF_CYCLES=200
BASIS  =  6-311++G(d,p)
GUI  =  2
JOB_TYPE  =  SP
METHOD  =  B3LYP
SOLVENT_METHOD = PCM
$end
$pcm
theory = CPCM
$end
$solvent
dielectric 37.219
opticaldielectric 1.43
$end

--------------------------------------------------------------

             Standard Nuclear Orientation (Angstroms)
    I     Atom           X                Y                Z
 ----------------------------------------------------------------
    1      N      -2.8223150000     1.5163910000     1.2052100000
    2      C      -2.4829800000     0.5248780000     0.3310390000
    3      C      -3.4518600000    -0.2019410000    -0.3620320000
    4      Br     -5.3241000000     0.2469000000    -0.1444110000
    5      C      -3.1382620000    -1.2544890000    -1.2194840000
    6      C      -1.8211590000    -1.6223040000    -1.3974440000
    7      Br     -1.6068700000    -3.0979960000    -2.6361610000
    8      C      -0.7561040000    -0.9454720000    -0.7460000000
    9      C       0.6490710000    -1.3462970000    -0.9228570000
   10      O       0.9948250000    -2.3409890000    -1.5943800000
   11      C       1.6681110000    -0.5199450000    -0.2668580000
   12      C       3.0294280000    -0.8484250000    -0.4430390000
   13      C       4.0242430000    -0.0971750000     0.1503700000
   14      C       3.6839410000     1.0153570000     0.9487990000
   15      C       2.3578250000     1.3501460000     1.1345100000
   16      C       1.3277120000     0.5927760000     0.5334420000
   17      C      -0.0629300000     0.9708000000     0.7594820000
   18      O      -0.3142200000     1.9779760000     1.4929010000
   19      C      -1.0980960000     0.1688300000     0.1141500000
   20      H      -2.0303960000     2.0745050000     1.5356460000
   21      H      -3.7582350000     1.8836770000     1.1626550000
   22      H      -3.9253960000    -1.7807320000    -1.7398310000
   23      H       3.2585380000    -1.7085390000    -1.0605820000
   24      H       5.0672510000    -0.3610950000     0.0037500000
   25      H       4.4652850000     1.6063350000     1.4171790000
   26      H       2.0666950000     2.1968310000     1.7439470000
 ----------------------------------------------------------------

    8   -5891.5506558171      8.28e-06  Convergence criterion met
 Total energy in the final basis set =    -5891.5506558171

                    Orbital Energies (a.u.)
 --------------------------------------------------------------

 Alpha MOs
 -- Occupied --
********-482.8224 -62.4881 -62.4752 -56.3084 -56.3047 -56.3046 -56.2957
-56.2920 -56.2916 -19.0852 -19.0782 -14.3127 -10.2355 -10.2352 -10.2333
-10.2270 -10.2250 -10.1948 -10.1901 -10.1900 -10.1761 -10.1753 -10.1745
-10.1741 -10.1718 -10.1714  -8.6967  -8.6839  -6.5277  -6.5154  -6.5153
 -6.5152  -6.5029  -6.5017  -2.6387  -2.6352  -2.6350  -2.6262  -2.6252
 -2.6252  -2.6229  -2.6221  -2.6121  -2.6121  -1.0140  -1.0111  -0.9306
 -0.8694  -0.8586  -0.8179  -0.8010  -0.7674  -0.7532  -0.7385  -0.7207
 -0.6710  -0.6403  -0.6278  -0.5867  -0.5646  -0.5561  -0.5252  -0.5147
 -0.4870  -0.4767  -0.4563  -0.4528  -0.4476  -0.4358  -0.4258  -0.4186
 -0.4179  -0.4050  -0.3992  -0.3905  -0.3850  -0.3689  -0.3549  -0.3536
 -0.3424  -0.3401  -0.3168  -0.3013  -0.2935  -0.2908  -0.2678  -0.2587
 -0.2532  -0.2520  -0.2333  -0.2174  -0.1455

 Beta MOs
 -- Occupied --
********-482.8224 -62.4880 -62.4752 -56.3084 -56.3047 -56.3046 -56.2957
-56.2919 -56.2916 -19.0805 -19.0730 -14.3124 -10.2353 -10.2335 -10.2316
-10.2266 -10.2236 -10.1937 -10.1899 -10.1894 -10.1755 -10.1747 -10.1742
-10.1737 -10.1717 -10.1713  -8.6967  -8.6839  -6.5277  -6.5153  -6.5153
 -6.5152  -6.5028  -6.5017  -2.6387  -2.6352  -2.6350  -2.6262  -2.6252
 -2.6252  -2.6229  -2.6221  -2.6120  -2.6120  -1.0057  -1.0021  -0.9294
 -0.8672  -0.8571  -0.8162  -0.7988  -0.7658  -0.7512  -0.7369  -0.7181
 -0.6649  -0.6381  -0.6255  -0.5857  -0.5626  -0.5543  -0.5235  -0.5135
 -0.4847  -0.4745  -0.4551  -0.4517  -0.4467  -0.4263  -0.4253  -0.4173
 -0.4127  -0.4025  -0.3915  -0.3840  -0.3727  -0.3680  -0.3534  -0.3460
 -0.3395  -0.3341  -0.3131  -0.3011  -0.2924  -0.2853  -0.2532  -0.2519
 -0.2491  -0.2472  -0.2293  -0.2092

          Ground-State Mulliken Net Atomic Charges

     Atom                 Charge (a.u.)    Spin (a.u.)
  --------------------------------------------------------
      1 N                    -0.361067       0.010955
      2 C                    -0.331576       0.002694
      3 C                     0.254063       0.085224
      4 Br                   -0.248134       0.003470
      5 C                    -0.314865       0.043738
      6 C                     0.260298       0.047812
      7 Br                   -0.258914       0.004871
      8 C                     0.738810       0.088743
      9 C                    -0.886201       0.084113
     10 O                    -0.371320       0.198218
     11 C                     0.035592       0.020194
     12 C                     0.097236       0.026500
     13 C                    -0.525170       0.028714
     14 C                    -0.573617       0.025701
     15 C                     0.101361       0.028754
     16 C                    -0.043587      -0.001376
     17 C                    -0.300209       0.114071
     18 O                    -0.456720       0.175745
     19 C                     0.541847       0.026370
     20 H                     0.343590      -0.002172
     21 H                     0.267074      -0.000917
     22 H                     0.276726      -0.003667
     23 H                     0.177683      -0.001733
     24 H                     0.199334      -0.002473
     25 H                     0.199462      -0.002377
     26 H                     0.178303      -0.001170
  --------------------------------------------------------
  Sum of atomic charges =    -1.000000

                    Cartesian Multipole Moments
 -----------------------------------------------------------------
    Charge (ESU x 10^10)
                -4.8032
    Dipole Moment (Debye)
         X       1.2928      Y       4.4592      Z       2.5556
       Tot       5.2997
    Quadrupole Moments (Debye-Ang)
        XX    -142.8005     XY      -0.4094     YY    -160.7571
        XZ       1.4816     YZ     -14.6972     ZZ    -154.3680

 Total job time:  272.33s(wall), 466.70s(cpu)
        *  Thank you very much for using Q-Chem.  Have a nice day.  *
