 Q-Chem 5.4, Q-Chem, Inc., Pleasanton, CA (2021)
 Q-Chem 5.4.0 for Intel X86 EM64T Linux

User input:
--------------------------------------------------------------
$molecule
0 1
C                 -3.5742300000      0.6914310000     -0.1489240000
O                 -2.7922350000     -0.4998200000     -0.0352670000
C                 -1.4709800000     -0.3871510000      0.0614320000
C                 -0.7564540000      0.7617950000      0.0645500000
C                  0.6967180000      0.7679510000      0.1986790000
O                  1.3261770000      1.8145430000      0.2630710000
C                  1.3993910000     -0.5731630000      0.2705490000
C                  0.6744560000     -1.7164350000      0.2781490000
C                 -0.7775460000     -1.7331110000      0.1769320000
O                 -1.4283430000     -2.7624900000      0.1734470000
O                  2.7286440000     -0.6735230000      0.3915980000
C                  3.6587170000      0.3968140000      0.1230270000
H                 -4.6071860000      0.3581710000     -0.2149800000
H                 -3.3029580000      1.2473870000     -1.0509180000
H                 -3.4422300000      1.3258090000      0.7322130000
H                 -1.2093750000      1.7415370000     -0.0049030000
H                  1.1669970000     -2.6779430000      0.3522000000
H                  3.4566560000      0.8619340000     -0.8415570000
H                  3.6242450000      1.1523640000      0.9050780000
H                  4.6295340000     -0.0961010000      0.1074190000
$end

$rem
BASIS  =  6-311++G(d,p)
GUI  =  2
JOB_TYPE  =  SP
METHOD  =  B3LYP
SCF_CONVERGENCE  = 8
SOLVENT_METHOD = sm12
$end

$smx
solvent dimethylformamide
charges CM5
$end

--------------------------------------------------------------

             Standard Nuclear Orientation (Angstroms)
    I     Atom           X                Y                Z
 ----------------------------------------------------------------
    1      C      -3.5742300000     0.6914310000    -0.1489240000
    2      O      -2.7922350000    -0.4998200000    -0.0352670000
    3      C      -1.4709800000    -0.3871510000     0.0614320000
    4      C      -0.7564540000     0.7617950000     0.0645500000
    5      C       0.6967180000     0.7679510000     0.1986790000
    6      O       1.3261770000     1.8145430000     0.2630710000
    7      C       1.3993910000    -0.5731630000     0.2705490000
    8      C       0.6744560000    -1.7164350000     0.2781490000
    9      C      -0.7775460000    -1.7331110000     0.1769320000
   10      O      -1.4283430000    -2.7624900000     0.1734470000
   11      O       2.7286440000    -0.6735230000     0.3915980000
   12      C       3.6587170000     0.3968140000     0.1230270000
   13      H      -4.6071860000     0.3581710000    -0.2149800000
   14      H      -3.3029580000     1.2473870000    -1.0509180000
   15      H      -3.4422300000     1.3258090000     0.7322130000
   16      H      -1.2093750000     1.7415370000    -0.0049030000
   17      H       1.1669970000    -2.6779430000     0.3522000000
   18      H       3.4566560000     0.8619340000    -0.8415570000
   19      H       3.6242450000     1.1523640000     0.9050780000
   20      H       4.6295340000    -0.0961010000     0.1074190000
 ----------------------------------------------------------------

   15    -610.6782303953      7.94e-09  Convergence criterion met
 Total energy in the final basis set =     -610.6939184082

                    Orbital Energies (a.u.)
 --------------------------------------------------------------

 Alpha MOs
 -- Occupied --
-19.1838 -19.1792 -19.1337 -19.1272 -10.2875 -10.2795 -10.2741 -10.2720
-10.2256 -10.2236 -10.1915 -10.1890  -1.1058  -1.0967  -1.0620  -1.0569
 -0.8555  -0.7922  -0.7424  -0.7248  -0.6753  -0.6279  -0.5994  -0.5484
 -0.5396  -0.5275  -0.4921  -0.4815  -0.4743  -0.4647  -0.4490  -0.4460
 -0.4344  -0.4298  -0.4143  -0.4070  -0.3749  -0.3651  -0.3584  -0.3539
 -0.2813  -0.2777  -0.2761  -0.2521

          Ground-State Mulliken Net Atomic Charges

     Atom                 Charge (a.u.)
  ----------------------------------------
      1 C                    -0.103186
      2 O                    -0.184908
      3 C                    -0.154316
      4 C                     1.709260
      5 C                    -0.910757
      6 O                    -0.288202
      7 C                     0.061725
      8 C                     0.162798
      9 C                    -1.427799
     10 O                    -0.366697
     11 O                    -0.202637
     12 C                    -0.196375
     13 H                     0.254843
     14 H                     0.241567
     15 H                     0.238721
     16 H                     0.332463
     17 H                     0.230020
     18 H                     0.182322
     19 H                     0.185511
     20 H                     0.235648
  ----------------------------------------
  Sum of atomic charges =     0.000000

                    Cartesian Multipole Moments
 -----------------------------------------------------------------
    Charge (ESU x 10^10)
                 0.0000
    Dipole Moment (Debye)
         X      -0.0846      Y       3.6453      Z      -0.7105
       Tot       3.7148
    Quadrupole Moments (Debye-Ang)
        XX     -53.1742     XY     -12.7735     YY     -84.1787
        XZ      -0.0542     YZ      -0.1284     ZZ     -69.1625

 Total job time:  205.44s(wall), 1586.33s(cpu)
        *  Thank you very much for using Q-Chem.  Have a nice day.  *
