 Q-Chem 5.4, Q-Chem, Inc., Pleasanton, CA (2021)
 Q-Chem 5.4.0 for Intel X86 EM64T Linux

User input:
--------------------------------------------------------------
$molecule
0 1
C                 -1.5704020000     -1.5506520000     -0.6407250000
C                 -1.1907760000     -0.1379610000     -0.1289980000
C                 -1.5595950000      0.0011080000      1.3697260000
C                 -2.0172300000      0.8930900000     -0.9203600000
C                  0.3121780000      0.0960540000     -0.3179050000
C                  0.8170460000      1.0805920000     -1.0817010000
C                  2.2577430000      1.3339590000     -1.2854100000
O                  2.6382960000      2.2457610000     -1.9923560000
C                  3.2215540000      0.4261550000     -0.5887630000
C                  2.7605330000     -0.5740410000      0.1868290000
Cl                 3.8059070000     -1.6630810000      1.0231640000
C                  1.2845160000     -0.8167600000      0.3820590000
O                  0.9228440000     -1.7318790000      1.0907700000
Cl                 4.8964530000      0.7429090000     -0.8424680000
H                 -1.0729420000     -2.3351480000     -0.0730640000
H                 -2.6507570000     -1.6897230000     -0.5439220000
H                 -1.3132050000     -1.6646740000     -1.6978890000
H                 -1.0617450000     -0.7492050000      1.9815250000
H                 -2.6398140000     -0.1223620000      1.4870210000
H                 -1.2948920000      0.9936370000      1.7460080000
H                 -3.0795290000      0.6945860000     -0.7610220000
H                 -1.8302620000      0.8325980000     -1.9960750000
H                 -1.8222570000      1.9174480000     -0.5910300000
H                  0.1863340000      1.7775910000     -1.6170050000
$end
$rem
MAX_SCF_CYCLES=200
BASIS  =  6-311++G(d,p)
GUI  =  2
JOB_TYPE  =  SP
METHOD  =  B3LYP
SOLVENT_METHOD = COSMO
$end
$solvent
dielectric 37.219
opticaldielectric 1.43
$end

--------------------------------------------------------------

             Standard Nuclear Orientation (Angstroms)
    I     Atom           X                Y                Z
 ----------------------------------------------------------------
    1      C      -3.1735428183     0.6693994945     1.2702763182
    2      C      -2.7387210670    -0.1043379858    -0.0001317423
    3      C      -3.1736100673     0.6711333378    -1.2694059654
    4      C      -3.4631656688    -1.4635750417    -0.0010474761
    5      C      -1.2171329227    -0.2889703779    -0.0001363579
    6      C      -0.6182650549    -1.4926930908    -0.0000480410
    7      C       0.8431159979    -1.7063878246     0.0000873243
    8      O       1.3109597296    -2.8275917977     0.0002032171
    9      C       1.7164209435    -0.4916058478    -0.0000107650
   10      C       1.1597697696     0.7350215695    -0.0000419102
   11      Cl      2.0968652702     2.1842017375    -0.0001716709
   12      C      -0.3357834361     0.9324399444     0.0001689308
   13      O      -0.7850829822     2.0587837768     0.0006052172
   14      Cl      3.4175023676    -0.7678448178    -0.0000732534
   15      H      -2.7515814579     1.6725319391     1.2987955295
   16      H      -4.2636437170     0.7553577015     1.2833034869
   17      H      -2.8706573508     0.1347407529     2.1753439730
   18      H      -2.7514912049     1.6742246261    -1.2967147590
   19      H      -4.2636984003     0.7572813883    -1.2821333218
   20      H      -2.8709625904     0.1375768579    -2.1752158931
   21      H      -4.5418527088    -1.2912212231    -0.0012282208
   22      H      -3.2262636823    -2.0571610415     0.8862586638
   23      H      -3.2258381946    -2.0562071096    -0.8888790671
   24      H      -1.1797885704    -2.4172724247    -0.0000960452
 ----------------------------------------------------------------

    9   -1458.0967317544      5.51e-06  Convergence criterion met
 Total energy in the final basis set =    -1458.0967317544
    4   -1458.1082101319      7.51e-06  Convergence criterion met
 Total energy in the final basis set =    -1458.1082101319

                    Orbital Energies (a.u.)
 --------------------------------------------------------------

 Alpha MOs
 -- Occupied --
********-101.5840 -19.1558 -19.1542 -10.3082 -10.3043 -10.2816 -10.2800
-10.2285 -10.2119 -10.2072 -10.1618 -10.1604 -10.1604  -9.4992  -9.4985
 -7.2639  -7.2633  -7.2544  -7.2537  -7.2533  -7.2523  -1.0933  -1.0887
 -0.9368  -0.8838  -0.8687  -0.8176  -0.7644  -0.7153  -0.6914  -0.6908
 -0.6403  -0.6233  -0.5627  -0.5503  -0.5162  -0.4947  -0.4799  -0.4775
 -0.4656  -0.4629  -0.4458  -0.4415  -0.4415  -0.4189  -0.4045  -0.3868
 -0.3850  -0.3699  -0.3664  -0.3621  -0.3528  -0.3453  -0.3417  -0.3322
 -0.3088  -0.3042  -0.2928  -0.2817

          Ground-State Mulliken Net Atomic Charges

     Atom                 Charge (a.u.)
  ----------------------------------------
      1 C                    -0.708120
      2 C                     0.386586
      3 C                    -0.707488
      4 C                    -0.494437
      5 C                     0.939549
      6 C                    -0.300609
      7 C                    -0.897202
      8 O                    -0.247530
      9 C                     0.897791
     10 C                    -0.208980
     11 Cl                    0.464819
     12 C                    -1.165107
     13 O                    -0.186212
     14 Cl                    0.426120
     15 H                     0.181174
     16 H                     0.178079
     17 H                     0.159066
     18 H                     0.181187
     19 H                     0.177903
     20 H                     0.159006
     21 H                     0.193951
     22 H                     0.151651
     23 H                     0.151769
     24 H                     0.267034
  ----------------------------------------
  Sum of atomic charges =     0.000000

                    Cartesian Multipole Moments
 -----------------------------------------------------------------
    Charge (ESU x 10^10)
                 0.0000
    Dipole Moment (Debye)
         X      -3.6355      Y      -0.2834      Z      -0.0012
       Tot       3.6465
    Quadrupole Moments (Debye-Ang)
        XX     -92.2314     XY       9.3982     YY    -112.5345
        XZ       0.0015     YZ      -0.0014     ZZ     -95.2362

 Total job time:  128.41s(wall), 281.85s(cpu)
        *  Thank you very much for using Q-Chem.  Have a nice day.  *
