 Q-Chem 5.4, Q-Chem, Inc., Pleasanton, CA (2021)
 Q-Chem 5.4.0 for Intel X86 EM64T Linux

User input:
--------------------------------------------------------------
$molecule
-2 1
C                 -5.0155420000     -1.0223970000     -0.0275940000
O                 -3.6124060000     -1.0874580000      0.0166110000
C                 -2.8912520000      0.0822510000      0.0053450000
C                 -3.5332710000      1.3122140000     -0.0293240000
C                 -2.7758440000      2.5092120000     -0.0420670000
C                 -1.4041360000      2.4512650000     -0.0334380000
C                 -0.7128190000      1.2155760000     -0.0055920000
C                  0.7527840000      1.2988190000     -0.0072190000
O                  1.3237020000      2.4313170000     -0.0436370000
C                  1.4556500000      0.0244680000      0.0402030000
C                  2.8912600000     -0.0825330000      0.0317700000
O                  3.6126190000      1.0842240000     -0.0504860000
C                  5.0160090000      1.0161660000     -0.0793690000
C                  3.5331830000     -1.3108610000      0.1047370000
C                  2.7755300000     -2.5049180000      0.1875150000
C                  1.4038070000     -2.4468400000      0.1821400000
C                  0.7126410000     -1.2133910000      0.1014820000
C                 -0.7529550000     -1.2968890000      0.0969540000
O                 -1.3239340000     -2.4285930000      0.1520500000
C                 -1.4557480000     -0.0232580000      0.0323410000
H                 -5.3644880000     -2.0576850000     -0.0484040000
H                 -5.4432330000     -0.5220330000      0.8545810000
H                 -5.3881860000     -0.5067610000     -0.9262530000
H                 -4.6139850000      1.3704520000     -0.0368930000
H                 -3.2930530000      3.4660610000     -0.0654910000
H                 -0.7903890000      3.3441650000     -0.0499890000
H                  5.3653190000      2.0461840000     -0.1845510000
H                  5.3947550000      0.4271250000     -0.9290290000
H                  5.4374900000      0.5917140000      0.8445940000
H                  4.6139100000     -1.3692100000      0.1091110000
H                  3.2926070000     -3.4602080000      0.2480410000
H                  0.7899730000     -3.3381800000      0.2365370000
$end
$rem
MAX_SCF_CYCLES=200
BASIS  =  6-311++G(d,p)
GUI  =  2
JOB_TYPE  =  SP
METHOD  =  B3LYP
SOLVENT_METHOD = COSMO
$end
$solvent
dielectric 37.219
opticaldielectric 1.43
$end

--------------------------------------------------------------

             Standard Nuclear Orientation (Angstroms)
    I     Atom           X                Y                Z
 ----------------------------------------------------------------
    1      C       4.9974449361     1.1059988644    -0.0821840134
    2      O       3.5932310611     1.1485873370    -0.0454788966
    3      C       2.8922764862    -0.0328578099    -0.0099935783
    4      C       3.5554115189    -1.2519072621     0.0092334582
    5      C       2.8186631764    -2.4613024471     0.0442680509
    6      C       1.4461398650    -2.4267704311     0.0458337078
    7      C       0.7336442888    -1.2031396398     0.0193830104
    8      C      -0.7302983872    -1.3117060300     0.0163206467
    9      O      -1.2815749315    -2.4544365679     0.0256181143
   10      C      -1.4550836850    -0.0488311373     0.0077644364
   11      C      -2.8922697522     0.0328832938    -0.0099939873
   12      O      -3.5931894349    -1.1485960287    -0.0455602984
   13      C      -4.9974095975    -1.1060856823    -0.0820050013
   14      C      -3.5554374735     1.2519085326     0.0091119593
   15      C      -2.8186993079     2.4613091617     0.0441744539
   16      C      -1.4461720673     2.4267831167     0.0458654595
   17      C      -0.7336497791     1.2031707835     0.0194564682
   18      C       0.7303067107     1.3117334525     0.0163585645
   19      O       1.2815814330     2.4544558154     0.0257560633
   20      C       1.4550770165     0.0488550158     0.0077085558
   21      H       5.3286836237     2.1453796473    -0.1453198190
   22      H       5.4300334440     0.6505722142     0.8216800271
   23      H       5.3825425196     0.5596191143    -0.9571131839
   24      H       4.6369866309    -1.2917169004     0.0077590475
   25      H       3.3522821168    -3.4092054787     0.0628290688
   26      H       0.8478544861    -3.3300566299     0.0647644761
   27      H      -5.3285870562    -2.1454963199    -0.1449718714
   28      H      -5.3827130921    -0.5598624454    -0.9569457652
   29      H      -5.4298778100    -0.6505782917     0.8218742059
   30      H      -4.6370144138     1.2916947313     0.0073895024
   31      H      -3.3523113516     3.4092143256     0.0627484094
   32      H      -0.8479278114     3.3301008979     0.0648128933
 ----------------------------------------------------------------

   19    -918.0063721484      5.28e-06  Convergence criterion met
 Total energy in the final basis set =     -918.0063721484
    6    -918.2912784131      3.43e-06  Convergence criterion met
 Total energy in the final basis set =     -918.2912784131

                    Orbital Energies (a.u.)
 --------------------------------------------------------------

 Alpha MOs
 -- Occupied --
-19.1349 -19.1349 -19.0183 -19.0182 -10.2151 -10.2151 -10.2048 -10.2048
-10.1790 -10.1790 -10.1473 -10.1473 -10.1434 -10.1434 -10.1431 -10.1431
-10.1367 -10.1367 -10.1358 -10.1358  -1.0523  -1.0522  -0.9483  -0.9455
 -0.8271  -0.8201  -0.7518  -0.7358  -0.7348  -0.7112  -0.6785  -0.6745
 -0.6337  -0.6010  -0.5932  -0.5554  -0.5365  -0.5184  -0.5088  -0.4737
 -0.4622  -0.4585  -0.4542  -0.4536  -0.4424  -0.4418  -0.4244  -0.4112
 -0.3983  -0.3847  -0.3844  -0.3748  -0.3686  -0.3563  -0.3545  -0.3369
 -0.3335  -0.3313  -0.3254  -0.3163  -0.3154  -0.3102  -0.2958  -0.2938
 -0.2287  -0.2201  -0.2085  -0.2068  -0.1978  -0.1897  -0.1022

          Ground-State Mulliken Net Atomic Charges

     Atom                 Charge (a.u.)
  ----------------------------------------
      1 C                    -0.311772
      2 O                    -0.167140
      3 C                     0.042628
      4 C                    -0.155342
      5 C                    -0.565143
      6 C                    -0.117626
      7 C                     0.342526
      8 C                    -0.323157
      9 O                    -0.694327
     10 C                    -0.072475
     11 C                     0.042792
     12 O                    -0.167061
     13 C                    -0.311722
     14 C                    -0.155929
     15 C                    -0.564756
     16 C                    -0.117801
     17 C                     0.344638
     18 C                    -0.323604
     19 O                    -0.693983
     20 C                    -0.070524
     21 H                     0.195946
     22 H                     0.159354
     23 H                     0.155228
     24 H                     0.179263
     25 H                     0.186480
     26 H                     0.143668
     27 H                     0.195961
     28 H                     0.155210
     29 H                     0.159324
     30 H                     0.179241
     31 H                     0.186499
     32 H                     0.143603
  ----------------------------------------
  Sum of atomic charges =    -2.000000

                    Cartesian Multipole Moments
 -----------------------------------------------------------------
    Charge (ESU x 10^10)
                -9.6064
    Dipole Moment (Debye)
         X       0.0021      Y       0.0016      Z      -0.2830
       Tot       0.2830
    Quadrupole Moments (Debye-Ang)
        XX    -122.0615     XY     -15.1312     YY    -174.8274
        XZ      -0.0020     YZ      -0.0008     ZZ    -129.1706

 Total job time:  127.94s(wall), 993.41s(cpu)
        *  Thank you very much for using Q-Chem.  Have a nice day.  *
