 Gaussian 16, Revision A.03,
 Gaussian 16:  ES64L-G16RevA.03 25-Dec-2016

 --------------------------------------
 #P UB3LYP/6-311++G(d,p) nosym opt freq
 --------------------------------------

 -------
 Reduced
 -------
 Symbolic Z-matrix:
 Charge = -2 Multiplicity = 1

 SCF Done:  E(UB3LYP) =  -610.642687840     A.U. after   46 cycles
 Optimization completed.
    -- Stationary point found.
 Normal termination of Gaussian 16 at Wed Jan 10 16:28:44 2024.

 ----------------------------------------------------------------------
 #P Geom=AllCheck Guess=TCheck SCRF=Check GenChk UB3LYP/6-311++G(d,p) F
 req
 ----------------------------------------------------------------------

 Structure from the checkpoint file:  "085-an.chk"
 -------
 Reduced
 -------
 Charge = -2 Multiplicity = 1

                          Input orientation:
 ---------------------------------------------------------------------
 Center     Atomic      Atomic             Coordinates (Angstroms)
 Number     Number       Type             X           Y           Z
 ---------------------------------------------------------------------
      1          6           0       -3.508484    0.673971   -0.151761
      2          8           0       -2.746773   -0.488319   -0.350925
      3          6           0       -1.389924   -0.433431   -0.036627
      4          6           0       -0.723630    0.763360    0.194586
      5          6           0        0.679085    0.863787    0.497051
      6          8           0        1.262063    1.991248    0.741409
      7          6           0        1.346769   -0.409722    0.511039
      8          6           0        0.681288   -1.608988    0.277779
      9          6           0       -0.719865   -1.721947    0.001197
     10          8           0       -1.314698   -2.839591   -0.209117
     11          8           0        2.708896   -0.488313    0.843953
     12          6           0        3.558552    0.255388   -0.016824
     13          1           0       -4.555972    0.419025   -0.341712
     14          1           0       -3.221514    1.485713   -0.835280
     15          1           0       -3.420640    1.056267    0.879696
     16          1           0       -1.254608    1.709201    0.181021
     17          1           0        1.250378   -2.534651    0.317110
     18          1           0        3.527186   -0.151611   -1.042421
     19          1           0        3.261501    1.308116   -0.029167
     20          1           0        4.580391    0.150496    0.370786
 ---------------------------------------------------------------------

 SCF Done:  E(UB3LYP) =  -610.642687840     A.U. after    4 cycles

 Alpha  occ. eigenvalues --  -18.89428 -18.88258 -18.77821 -18.77309  -9.98882
 Alpha  occ. eigenvalues --   -9.97373  -9.94825  -9.93746  -9.93590  -9.93415
 Alpha  occ. eigenvalues --   -9.88666  -9.88187  -0.80503  -0.78951  -0.68779
 Alpha  occ. eigenvalues --   -0.68490  -0.54238  -0.48993  -0.46066  -0.43097
 Alpha  occ. eigenvalues --   -0.39068  -0.32693  -0.30699  -0.25290  -0.23787
 Alpha  occ. eigenvalues --   -0.22591  -0.22348  -0.21014  -0.19856  -0.17529
 Alpha  occ. eigenvalues --   -0.14713  -0.13051  -0.12253  -0.11174  -0.10490
 Alpha  occ. eigenvalues --   -0.09554  -0.07642  -0.07268  -0.05310  -0.03109
 Alpha  occ. eigenvalues --    0.02615   0.04228   0.04908   0.05310   0.13676
 Alpha virt. eigenvalues --    0.15364   0.15934   0.19016   0.19708   0.20477
 Alpha virt. eigenvalues --    0.20642   0.22274   0.23570   0.24188   0.25634
 Alpha virt. eigenvalues --    0.26825   0.27441   0.28483   0.28651   0.29006

  Beta  occ. eigenvalues --  -18.89428 -18.88258 -18.77821 -18.77309  -9.98882
  Beta  occ. eigenvalues --   -9.97373  -9.94825  -9.93746  -9.93590  -9.93415
  Beta  occ. eigenvalues --   -9.88666  -9.88187  -0.80503  -0.78951  -0.68779
  Beta  occ. eigenvalues --   -0.68490  -0.54238  -0.48993  -0.46066  -0.43097
  Beta  occ. eigenvalues --   -0.39068  -0.32693  -0.30699  -0.25290  -0.23787
  Beta  occ. eigenvalues --   -0.22591  -0.22348  -0.21014  -0.19856  -0.17529
  Beta  occ. eigenvalues --   -0.14713  -0.13051  -0.12253  -0.11174  -0.10490
  Beta  occ. eigenvalues --   -0.09554  -0.07642  -0.07268  -0.05310  -0.03109
  Beta  occ. eigenvalues --    0.02615   0.04228   0.04908   0.05310   0.13676
  Beta virt. eigenvalues --    0.15364   0.15934   0.19016   0.19708   0.20477
  Beta virt. eigenvalues --    0.20642   0.22274   0.23570   0.24188   0.25634
  Beta virt. eigenvalues --    0.26825   0.27441   0.28483   0.28651   0.29006

 Mulliken charges and spin densities:
               1          2
     1  C    0.894244   0.000000
     2  O   -0.196170  -0.000000
     3  C   -0.722444  -0.000000
     4  C    0.758849  -0.000000
     5  C    0.168938   0.000000
     6  O   -0.540553   0.000000
     7  C   -0.427801  -0.000000
     8  C    1.051724   0.000000
     9  C   -1.198338  -0.000000
    10  O   -0.533756   0.000000
    11  O   -0.229396  -0.000000
    12  C    0.122781   0.000000
    13  H   -1.187628  -0.000000
    14  H   -0.018428  -0.000000
    15  H   -0.041314   0.000000
    16  H    0.133109  -0.000000
    17  H    0.105406   0.000000
    18  H    0.030412  -0.000000
    19  H    0.223685   0.000000
    20  H   -0.393319  -0.000000
 Sum of Mulliken charges =  -2.00000   0.00000

 Dipole moment (field-independent basis, Debye):
    X=              4.4502    Y=              3.3931    Z=             -2.2034  Tot=              6.0143
 Quadrupole moment (field-independent basis, Debye-Ang):
   XX=           -172.7848   YY=           -126.4651   ZZ=            -90.4800
   XY=            -12.1149   XZ=            -13.4259   YZ=             -6.0704

  Exact polarizability:4514.124-336.346 380.869 317.329 -13.233 300.708
 Approx polarizability:5981.157-875.155 619.626 553.567 -73.578 323.136

                      1                      2                      3
                      A                      A                      A
 Frequencies --     59.9470                95.6080               106.9071
 Red. masses --      3.4458                 3.1950                 5.2089
 Frc consts  --      0.0073                 0.0172                 0.0351
 IR Inten    --      0.0779                 5.4086                 3.5292

                      4                      5                      6
                      A                      A                      A
 Frequencies --    174.9257               188.8583               201.0789
 Red. masses --      2.3601                 1.4678                 3.0482
 Frc consts  --      0.0425                 0.0308                 0.0726
 IR Inten    --     13.0885               101.2900                33.5308

                      7                      8                      9
                      A                      A                      A
 Frequencies --    238.0084               287.9825               307.7683
 Red. masses --      3.0820                 4.9066                 1.5124
 Frc consts  --      0.1029                 0.2398                 0.0844
 IR Inten    --     18.6165                 1.2010                81.7050

                     10                     11                     12
                      A                      A                      A
 Frequencies --    331.3884               339.8763               376.1571
 Red. masses --      7.4753                 5.3368                 7.9636
 Frc consts  --      0.4837                 0.3632                 0.6639
 IR Inten    --    103.9586                36.5566                27.7376

                     13                     14                     15
                      A                      A                      A
 Frequencies --    435.2859               458.3914               477.0986
 Red. masses --      5.7883                 9.5354                 3.1824
 Frc consts  --      0.6462                 1.1805                 0.4268
 IR Inten    --     16.7926                22.0871                31.9425

                     16                     17                     18
                      A                      A                      A
 Frequencies --    522.1847               651.3431               691.6927
 Red. masses --      5.2541                 5.4662                 2.9288
 Frc consts  --      0.8441                 1.3663                 0.8256
 IR Inten    --     27.6391                39.9780                13.6810

                     19                     20                     21
                      A                      A                      A
 Frequencies --    705.1839               721.5061               734.8091
 Red. masses --      2.9469                 6.6289                 6.3991
 Frc consts  --      0.8634                 2.0332                 2.0357
 IR Inten    --      7.1668                 5.7372                19.1110

                     22                     23                     24
                      A                      A                      A
 Frequencies --    806.3119               829.9070               867.3949
 Red. masses --      2.2703                 1.5632                 3.4628
 Frc consts  --      0.8696                 0.6344                 1.5350
 IR Inten    --      9.7930                86.0482                67.8625

                     25                     26                     27
                      A                      A                      A
 Frequencies --   1010.2192              1050.4563              1106.3761
 Red. masses --      6.4385                 4.5087                 6.0133
 Frc consts  --      3.8714                 2.9313                 4.3368
 IR Inten    --    124.2073               439.9311              1120.0578

                     28                     29                     30
                      A                      A                      A
 Frequencies --   1141.0246              1162.7000              1163.7054
 Red. masses --      3.1572                 1.2889                 1.5329
 Frc consts  --      2.4218                 1.0266                 1.2231
 IR Inten    --    898.5772                70.4473                26.5194

                     31                     32                     33
                      A                      A                      A
 Frequencies --   1183.2929              1190.7444              1203.0777
 Red. masses --      2.4440                 2.0925                 1.4952
 Frc consts  --      2.0162                 1.7481                 1.2751
 IR Inten    --    160.6910              1250.5704               317.7857

                     34                     35                     36
                      A                      A                      A
 Frequencies --   1219.4316              1283.8189              1364.3101
 Red. masses --      1.4655                 2.8241                 7.5234
 Frc consts  --      1.2840                 2.7425                 8.2507
 IR Inten    --    627.4635                61.6621               834.6839

                     37                     38                     39
                      A                      A                      A
 Frequencies --   1412.2740              1431.8557              1449.6896
 Red. masses --      2.2169                 3.4288                 1.6819
 Frc consts  --      2.6052                 4.1418                 2.0825
 IR Inten    --    166.7011               140.4410               111.7278

                     40                     41                     42
                      A                      A                      A
 Frequencies --   1456.8446              1461.6688              1481.1537
 Red. masses --      1.1048                 1.4752                 1.3056
 Frc consts  --      1.3815                 1.8570                 1.6876
 IR Inten    --    151.6346              1288.2544               306.2922

                     43                     44                     45
                      A                      A                      A
 Frequencies --   1487.8564              1504.2448              1514.9847
 Red. masses --      2.2794                 1.1631                 1.0533
 Frc consts  --      2.9730                 1.5506                 1.4243
 IR Inten    --   2675.2084               157.7186                70.8482

                     46                     47                     48
                      A                      A                      A
 Frequencies --   1586.2935              2917.6782              2924.5472
 Red. masses --      6.0406                 1.0481                 1.0457
 Frc consts  --      8.9556                 5.2570                 5.2698
 IR Inten    --    162.5159                94.9052               106.1215

                     49                     50                     51
                      A                      A                      A
 Frequencies --   2979.3175              2995.3957              3048.5308
 Red. masses --      1.0911                 1.0837                 1.0958
 Frc consts  --      5.7060                 5.7287                 6.0000
 IR Inten    --    380.7031               312.8623               405.6154

                     52                     53                     54
                      A                      A                      A
 Frequencies --   3059.9785              3133.4198              3158.2164
 Red. masses --      1.1005                 1.0881                 1.0869
 Frc consts  --      6.0713                 6.2943                 6.3876
 IR Inten    --    212.1695                68.0738                34.0200

 - Thermochemistry -
 -------------------
 Temperature   298.150 Kelvin.  Pressure   1.00000 Atm.
 Atom     1 has atomic number  6 and mass  12.00000

 Molecular mass:   168.04226 amu.
 Principal axes and moments of inertia in atomic units:
                           1         2         3
     Eigenvalues --  1070.907292814.142263782.87612
           X            0.97907  -0.16992  -0.11203
           Y            0.15991   0.98273  -0.09308
           Z            0.12592   0.07322   0.98934
 This molecule is an asymmetric top.
 Rotational symmetry number  1.
 Warning -- assumption of classical behavior for rotation
           may cause significant error
 Rotational temperatures (Kelvin)      0.08088     0.03078     0.02290
 Rotational constants (GHZ):           1.68525     0.64131     0.47708
 Zero-point vibrational energy     380967.1 (Joules/Mol)
                                   91.05332 (Kcal/Mol)
 Warning -- explicit consideration of  16 degrees of freedom as
           vibrations may cause significant error
 Vibrational temperatures:     86.25   137.56   153.82   251.68   271.72
          (Kelvin)            289.31   342.44   414.34   442.81   476.79
                              489.01   541.21   626.28   659.52   686.44
                              751.31   937.14   995.19  1014.60  1038.09
                             1057.23  1160.10  1194.05  1247.99  1453.48
                             1511.37  1591.83  1641.68  1672.87  1674.31
                             1702.49  1713.22  1730.96  1754.49  1847.13
                             1962.94  2031.95  2060.12  2085.78  2096.07
                             2103.02  2131.05  2140.69  2164.27  2179.73
                             2282.32  4197.89  4207.77  4286.57  4309.71
                             4386.16  4402.63  4508.29  4543.97

 Zero-point correction=                           0.145103 (Hartree/Particle)
 Thermal correction to Energy=                    0.156438
 Thermal correction to Enthalpy=                  0.157382
 Thermal correction to Gibbs Free Energy=         0.107929
 Sum of electronic and zero-point Energies=           -610.497585
 Sum of electronic and thermal Energies=              -610.486250
 Sum of electronic and thermal Enthalpies=            -610.485306
 Sum of electronic and thermal Free Energies=         -610.534759

                     E (Thermal)             CV                S
                      KCal/Mol        Cal/Mol-Kelvin    Cal/Mol-Kelvin
 Total                   98.166             42.023            104.083
 Electronic               0.000              0.000              0.000
 Translational            0.889              2.981             41.265
 Rotational               0.889              2.981             30.812
 Vibrational             96.389             36.061             32.006
 Vibration     1          0.597              1.973              4.459
 Vibration     2          0.603              1.952              3.542
 Vibration     3          0.606              1.944              3.324
 Vibration     4          0.627              1.873              2.382
 Vibration     5          0.633              1.855              2.239
 Vibration     6          0.638              1.838              2.123
 Vibration     7          0.656              1.782              1.818
 Vibration     8          0.685              1.696              1.486
 Vibration     9          0.698              1.659              1.374
 Vibration    10          0.714              1.613              1.253
 Vibration    11          0.720              1.596              1.213
 Vibration    12          0.747              1.521              1.055
 Vibration    13          0.796              1.393              0.842
 Vibration    14          0.816              1.342              0.771
 Vibration    15          0.834              1.301              0.718
 Vibration    16          0.877              1.201              0.605

                           ! Non-Optimized Parameters !
 Normal termination of Gaussian 16 at Wed Jan 10 16:35:21 2024.
