 Q-Chem 5.4, Q-Chem, Inc., Pleasanton, CA (2021)
 Q-Chem 5.4.0 for Intel X86 EM64T Linux

User input:
--------------------------------------------------------------
$molecule
-2 1
C                 -3.5084840000      0.6739710000     -0.1517610000
O                 -2.7467730000     -0.4883190000     -0.3509250000
C                 -1.3899240000     -0.4334310000     -0.0366270000
C                 -0.7236300000      0.7633600000      0.1945860000
C                  0.6790850000      0.8637870000      0.4970510000
O                  1.2620630000      1.9912480000      0.7414090000
C                  1.3467690000     -0.4097220000      0.5110390000
C                  0.6812880000     -1.6089880000      0.2777790000
C                 -0.7198650000     -1.7219470000      0.0011970000
O                 -1.3146980000     -2.8395910000     -0.2091170000
O                  2.7088960000     -0.4883130000      0.8439530000
C                  3.5585520000      0.2553880000     -0.0168240000
H                 -4.5559720000      0.4190250000     -0.3417120000
H                 -3.2215140000      1.4857130000     -0.8352800000
H                 -3.4206400000      1.0562670000      0.8796960000
H                 -1.2546080000      1.7092010000      0.1810210000
H                  1.2503780000     -2.5346510000      0.3171100000
H                  3.5271860000     -0.1516110000     -1.0424210000
H                  3.2615010000      1.3081160000     -0.0291670000
H                  4.5803910000      0.1504960000      0.3707860000
$end
$rem
MAX_SCF_CYCLES=200
BASIS  =  6-311++G(d,p)
GUI  =  2
JOB_TYPE  =  SP
METHOD  =  B3LYP
SOLVENT_METHOD = PCM
$end
$pcm
theory = CPCM
$end
$solvent
dielectric 37.219
opticaldielectric 1.43
$end

--------------------------------------------------------------

             Standard Nuclear Orientation (Angstroms)
    I     Atom           X                Y                Z
 ----------------------------------------------------------------
    1      C      -3.5084840000     0.6739710000    -0.1517610000
    2      O      -2.7467730000    -0.4883190000    -0.3509250000
    3      C      -1.3899240000    -0.4334310000    -0.0366270000
    4      C      -0.7236300000     0.7633600000     0.1945860000
    5      C       0.6790850000     0.8637870000     0.4970510000
    6      O       1.2620630000     1.9912480000     0.7414090000
    7      C       1.3467690000    -0.4097220000     0.5110390000
    8      C       0.6812880000    -1.6089880000     0.2777790000
    9      C      -0.7198650000    -1.7219470000     0.0011970000
   10      O      -1.3146980000    -2.8395910000    -0.2091170000
   11      O       2.7088960000    -0.4883130000     0.8439530000
   12      C       3.5585520000     0.2553880000    -0.0168240000
   13      H      -4.5559720000     0.4190250000    -0.3417120000
   14      H      -3.2215140000     1.4857130000    -0.8352800000
   15      H      -3.4206400000     1.0562670000     0.8796960000
   16      H      -1.2546080000     1.7092010000     0.1810210000
   17      H       1.2503780000    -2.5346510000     0.3171100000
   18      H       3.5271860000    -0.1516110000    -1.0424210000
   19      H       3.2615010000     1.3081160000    -0.0291670000
   20      H       4.5803910000     0.1504960000     0.3707860000
 ----------------------------------------------------------------

   10    -610.9429142093      2.16e-06  Convergence criterion met
 Total energy in the final basis set =     -610.9429142093

                    Orbital Energies (a.u.)
 --------------------------------------------------------------

 Alpha MOs
 -- Occupied --
-19.1240 -19.1114 -19.0163 -19.0150 -10.2000 -10.1878 -10.1797 -10.1697
-10.1686 -10.1681 -10.1210 -10.1178  -1.0352  -1.0192  -0.9328  -0.9279
 -0.7770  -0.7158  -0.6830  -0.6602  -0.6195  -0.5594  -0.5359  -0.4802
 -0.4671  -0.4572  -0.4447  -0.4321  -0.4202  -0.4048  -0.3778  -0.3674
 -0.3595  -0.3578  -0.3384  -0.3245  -0.3158  -0.3086  -0.2910  -0.2633
 -0.2201  -0.1991  -0.1969  -0.1906  -0.1121

          Ground-State Mulliken Net Atomic Charges

     Atom                 Charge (a.u.)
  ----------------------------------------
      1 C                    -0.310686
      2 O                    -0.252439
      3 C                    -0.380721
      4 C                     0.509270
      5 C                    -0.336891
      6 O                    -0.750069
      7 C                    -0.387869
      8 C                     0.552213
      9 C                    -0.559648
     10 O                    -0.764915
     11 O                    -0.276998
     12 C                    -0.270163
     13 H                     0.178974
     14 H                     0.146119
     15 H                     0.147105
     16 H                     0.170146
     17 H                     0.161019
     18 H                     0.115553
     19 H                     0.172178
     20 H                     0.137823
  ----------------------------------------
  Sum of atomic charges =    -2.000000

                    Cartesian Multipole Moments
 -----------------------------------------------------------------
    Charge (ESU x 10^10)
                -9.6064
    Dipole Moment (Debye)
         X      -0.4947      Y       6.7714      Z      -3.3607
       Tot       7.5757
    Quadrupole Moments (Debye-Ang)
        XX     -93.6776     XY     -26.6757     YY    -128.4287
        XZ     -10.7615     YZ      -7.8837     ZZ     -84.1164

 Total job time:  31.58s(wall), 168.34s(cpu)
        *  Thank you very much for using Q-Chem.  Have a nice day.  *
