 Gaussian 16, Revision A.03,
 Gaussian 16:  ES64L-G16RevA.03 25-Dec-2016

 ----------------------------------------------------------------------
 #P UB3LYP/6-311++G(d,p) nosym opt freq SCRF=(PCM,Solvent=n,n-DiMethylF
 ormamide)
 ----------------------------------------------------------------------

 -------
 Radical
 -------
 Symbolic Z-matrix:
 Charge = -1 Multiplicity = 2

 SCF Done:  E(UB3LYP) =  -807.293630371     A.U. after   20 cycles
 SCF Done:  E(UB3LYP) =  -807.293897416     A.U. after   16 cycles
 SCF Done:  E(UB3LYP) =  -807.293937549     A.U. after   15 cycles
 SCF Done:  E(UB3LYP) =  -807.293956766     A.U. after   14 cycles
 SCF Done:  E(UB3LYP) =  -807.293964444     A.U. after   15 cycles
 SCF Done:  E(UB3LYP) =  -807.293966648     A.U. after   11 cycles
 SCF Done:  E(UB3LYP) =  -807.293967163     A.U. after   10 cycles
 SCF Done:  E(UB3LYP) =  -807.293967245     A.U. after    9 cycles
 Optimization completed.
    -- Stationary point found.
 Normal termination of Gaussian 16 at Sun Feb 11 02:15:22 2024.

 ----------------------------------------------------------------------
 #P Geom=AllCheck Guess=TCheck SCRF=Check GenChk UB3LYP/6-311++G(d,p) F
 req
 ----------------------------------------------------------------------

 Structure from the checkpoint file:  "289-rad.chk"
 -------
 Radical
 -------
 Charge = -1 Multiplicity = 2

                          Input orientation:
 ---------------------------------------------------------------------
 Center     Atomic      Atomic             Coordinates (Angstroms)
 Number     Number       Type             X           Y           Z
 ---------------------------------------------------------------------
      1          6           0       -2.012367    3.061465   -0.233382
      2          6           0       -2.983918    2.515586    0.586190
      3          6           0       -2.723794    1.322059    1.286367
      4          6           0       -0.755011    2.436918   -0.381129
      5          6           0       -0.489366    1.229678    0.325201
      6          6           0       -1.494860    0.695825    1.152654
      7          6           0        0.262873    3.007757   -1.239085
      8          6           0        1.516790    2.301902   -1.325119
      9          6           0        1.808070    1.127792   -0.658300
     10          6           0        0.810523    0.538860    0.203621
     11          8           0        0.125809    4.082875   -1.916873
     12          8           0        1.027085   -0.535852    0.835794
     13          1           0       -2.198298    3.979579   -0.778220
     14          1           0       -3.945719    3.006253    0.690510
     15          1           0       -3.485160    0.894319    1.929608
     16          1           0       -1.281381   -0.222322    1.686748
     17          8           0        2.432679    2.892355   -2.147207
     18          1           0        1.958267    3.682306   -2.480872
     19          6           0        3.154343    0.461985   -0.799316
     20          6           0        4.174741    0.933635    0.258407
     21          6           0        5.528449    0.199655    0.225250
     22          6           0        6.380632    0.590446    1.441415
     23          6           0        6.303696    0.451081   -1.076459
     24          1           0        3.546632    0.652670   -1.800963
     25          1           0        3.018865   -0.618465   -0.695084
     26          1           0        3.728253    0.799099    1.249754
     27          1           0        4.348909    2.010847    0.139405
     28          1           0        5.322674   -0.877693    0.293205
     29          1           0        7.330466    0.046835    1.451602
     30          1           0        5.859006    0.374181    2.378706
     31          1           0        6.610986    1.661862    1.426947
     32          1           0        7.262074   -0.077245   -1.067824
     33          1           0        6.513676    1.519717   -1.200751
     34          1           0        5.750258    0.114977   -1.956786
 ---------------------------------------------------------------------

 SCF Done:  E(UB3LYP) =  -807.293967245     A.U. after    1 cycles

 Alpha  occ. eigenvalues --  -19.14326 -19.08411 -19.07220 -10.22205 -10.22075
 Alpha  occ. eigenvalues --  -10.21985 -10.17434 -10.17244 -10.17228 -10.17113
 Alpha  occ. eigenvalues --  -10.17073 -10.16941 -10.16720 -10.16229 -10.15725
 Alpha  occ. eigenvalues --  -10.15572 -10.15160 -10.15112  -1.06209  -0.99489
 Alpha  occ. eigenvalues --   -0.99297  -0.85800  -0.81550  -0.79742  -0.75683
 Alpha  occ. eigenvalues --   -0.74998  -0.71295  -0.67894  -0.67126  -0.63526
 Alpha  occ. eigenvalues --   -0.61553  -0.58710  -0.56954  -0.55307  -0.53578
 Alpha  occ. eigenvalues --   -0.50451  -0.48303  -0.46515  -0.45559  -0.45245
 Alpha  occ. eigenvalues --   -0.43961  -0.42931  -0.42580  -0.41845  -0.41559
 Alpha  occ. eigenvalues --   -0.40942  -0.39093  -0.38742  -0.38324  -0.38019
 Alpha  occ. eigenvalues --   -0.37581  -0.36892  -0.35394  -0.34852  -0.34261
 Alpha  occ. eigenvalues --   -0.33908  -0.33580  -0.32081  -0.31566  -0.31331
 Alpha  occ. eigenvalues --   -0.26626  -0.25757  -0.25700  -0.23809  -0.22711
 Alpha  occ. eigenvalues --   -0.15073
 Alpha virt. eigenvalues --   -0.03267  -0.00853  -0.00471   0.00231   0.00778
 Alpha virt. eigenvalues --    0.01430   0.01719   0.02108   0.03347   0.03620
 Alpha virt. eigenvalues --    0.03731   0.04326   0.04439   0.04950   0.05249

  Beta  occ. eigenvalues --  -19.14278 -19.07775 -19.06677 -10.22070 -10.21973
  Beta  occ. eigenvalues --  -10.21701 -10.17418 -10.17224 -10.17135 -10.17036
  Beta  occ. eigenvalues --  -10.17024 -10.16961 -10.16719 -10.16150 -10.15732
  Beta  occ. eigenvalues --  -10.15564 -10.15160 -10.15112  -1.06002  -0.98537
  Beta  occ. eigenvalues --   -0.98212  -0.85566  -0.81387  -0.79504  -0.75485
  Beta  occ. eigenvalues --   -0.74796  -0.71136  -0.67893  -0.66308  -0.63367
  Beta  occ. eigenvalues --   -0.61357  -0.58499  -0.56709  -0.55293  -0.53406
  Beta  occ. eigenvalues --   -0.50220  -0.48042  -0.46379  -0.45470  -0.45169
  Beta  occ. eigenvalues --   -0.43681  -0.42617  -0.42126  -0.41502  -0.41187
  Beta  occ. eigenvalues --   -0.40551  -0.38865  -0.38297  -0.37957  -0.37679
  Beta  occ. eigenvalues --   -0.37381  -0.36064  -0.35066  -0.34260  -0.33928
  Beta  occ. eigenvalues --   -0.33419  -0.32610  -0.31934  -0.31511  -0.31282
  Beta  occ. eigenvalues --   -0.25194  -0.24997  -0.24638  -0.23296  -0.21778
  Beta virt. eigenvalues --   -0.08516  -0.02518  -0.00534   0.00133   0.00419
  Beta virt. eigenvalues --    0.00799   0.01441   0.01729   0.02111   0.03364
  Beta virt. eigenvalues --    0.03626   0.03767   0.04363   0.04459   0.05189

 Mulliken charges and spin densities:
               1          2
     1  C    0.106037   0.073861
     2  C   -0.400869  -0.000330
     3  C   -0.424253   0.069796
     4  C    0.248672  -0.007290
     5  C    0.045127   0.061919
     6  C    0.112865   0.003001
     7  C   -0.870318   0.167234
     8  C   -0.676336   0.060260
     9  C    2.089348   0.049583
    10  C   -0.901253   0.074607
    11  O   -0.526024   0.232253
    12  O   -0.460359   0.200918
    13  H    0.167344  -0.004047
    14  H    0.181833  -0.000629
    15  H    0.178550  -0.004935
    16  H    0.165180  -0.000385
    17  O   -0.268469   0.016261
    18  H    0.287707  -0.003597
    19  C   -0.213970   0.007472
    20  C   -0.694749  -0.000298
    21  C    0.433325   0.003200
    22  C   -0.632996  -0.001096
    23  C   -0.649643  -0.000424
    24  H    0.196095  -0.000669
    25  H    0.196465   0.001995
    26  H    0.162314  -0.001762
    27  H    0.159330   0.002508
    28  H    0.134111   0.000445
    29  H    0.148301   0.000038
    30  H    0.134962   0.000021
    31  H    0.140330  -0.000048
    32  H    0.147395   0.000292
    33  H    0.143716  -0.000014
    34  H    0.140231  -0.000143
 Sum of Mulliken charges =  -1.00000   1.00000

 Dipole moment (field-independent basis, Debye):
    X=             -3.6885    Y=             -8.0136    Z=              2.5846  Tot=              9.1925
 Quadrupole moment (field-independent basis, Debye-Ang):
   XX=           -118.4264   YY=           -148.3147   ZZ=           -123.6460
   XY=             -2.9413   XZ=             -0.8271   YZ=             16.7713

  Exact polarizability: 351.276 -36.570 300.231 -45.933 -75.120 247.752
 Approx polarizability: 358.445 -34.858 352.294 -49.907 -94.735 279.527

                      1                      2                      3
                      A                      A                      A
 Frequencies --     28.0226                34.6104                42.6462
 Red. masses --      3.1054                 3.6253                 4.9911
 Frc consts  --      0.0014                 0.0026                 0.0053
 IR Inten    --      0.8663                 1.0302                 3.5977

                      4                      5                      6
                      A                      A                      A
 Frequencies --     94.4828               109.3962               126.4695
 Red. masses --      7.1804                 2.2566                 4.1575
 Frc consts  --      0.0378                 0.0159                 0.0392
 IR Inten    --      8.8830                 1.2655                 0.9549

                      7                      8                      9
                      A                      A                      A
 Frequencies --    159.8679               182.6773               195.9029
 Red. masses --      6.3618                 4.2538                 4.5775
 Frc consts  --      0.0958                 0.0836                 0.1035
 IR Inten    --      0.7125                 1.0127                 1.0189

                     10                     11                     12
                      A                      A                      A
 Frequencies --    223.4677               248.2865               255.4829
 Red. masses --      1.0611                 1.1673                 3.3271
 Frc consts  --      0.0312                 0.0424                 0.1279
 IR Inten    --      0.2254                 0.5136                 5.5559

                     13                     14                     15
                      A                      A                      A
 Frequencies --    293.7421               310.6746               336.7896
 Red. masses --      2.9020                 4.1206                 5.0378
 Frc consts  --      0.1475                 0.2343                 0.3367
 IR Inten    --      5.3624                 0.7893                28.3727

                     16                     17                     18
                      A                      A                      A
 Frequencies --    378.0530               381.6471               394.2871
 Red. masses --      6.5066                 3.6669                 2.5950
 Frc consts  --      0.5479                 0.3147                 0.2377
 IR Inten    --     22.9461                 5.6307                 2.9596

                     19                     20                     21
                      A                      A                      A
 Frequencies --    420.1301               430.6880               444.8173
 Red. masses --      3.1935                 8.1813                 3.5161
 Frc consts  --      0.3321                 0.8941                 0.4099
 IR Inten    --      1.7465                 2.4799                 2.8509

                     22                     23                     24
                      A                      A                      A
 Frequencies --    463.0890               483.0765               531.8716
 Red. masses --      3.1937                 5.8218                 7.2025
 Frc consts  --      0.4035                 0.8005                 1.2005
 IR Inten    --      4.7834                 6.8474                 1.5686

                     25                     26                     27
                      A                      A                      A
 Frequencies --    571.1607               641.6486               656.3815
 Red. masses --      5.0868                 6.0902                 1.1130
 Frc consts  --      0.9777                 1.4773                 0.2825
 IR Inten    --      2.3720                36.7216               135.4211

                     28                     29                     30
                      A                      A                      A
 Frequencies --    675.0146               697.0554               706.5330
 Red. masses --      5.9172                 3.2755                 3.6250
 Frc consts  --      1.5885                 0.9377                 1.0662
 IR Inten    --      9.2268                 5.2618                62.9785

                     31                     32                     33
                      A                      A                      A
 Frequencies --    707.8137               756.4286               761.8783
 Red. masses --      4.9289                 1.7400                 3.0083
 Frc consts  --      1.4549                 0.5866                 1.0288
 IR Inten    --     28.7811                 3.9618                23.4761

                     34                     35                     36
                      A                      A                      A
 Frequencies --    785.5986               826.6941               866.8518
 Red. masses --      1.9548                 2.8668                 2.9507
 Frc consts  --      0.7108                 1.1544                 1.3064
 IR Inten    --     32.1475                 4.6863                45.2256

                     37                     38                     39
                      A                      A                      A
 Frequencies --    880.9421               925.3643               938.1770
 Red. masses --      1.3801                 1.2345                 2.1553
 Frc consts  --      0.6310                 0.6228                 1.1177
 IR Inten    --      0.0331                 2.8227                14.9570

                     40                     41                     42
                      A                      A                      A
 Frequencies --    945.2257               960.0561               978.3623
 Red. masses --      3.6569                 1.4385                 2.0514
 Frc consts  --      1.9250                 0.7812                 1.1569
 IR Inten    --     31.1812                 1.1057                 9.3745

                     43                     44                     45
                      A                      A                      A
 Frequencies --    981.9543               996.9615              1023.8861
 Red. masses --      1.3649                 1.2808                 3.3352
 Frc consts  --      0.7754                 0.7501                 2.0601
 IR Inten    --      2.6882                 0.1127                31.8615

                     46                     47                     48
                      A                      A                      A
 Frequencies --   1040.7796              1054.2571              1109.5447
 Red. masses --      2.1476                 3.0094                 2.1640
 Frc consts  --      1.3706                 1.9707                 1.5696
 IR Inten    --     32.9139               114.5317                 8.2283

                     49                     50                     51
                      A                      A                      A
 Frequencies --   1123.7858              1137.0746              1154.0982
 Red. masses --      1.9443                 2.0185                 1.3248
 Frc consts  --      1.4467                 1.5377                 1.0396
 IR Inten    --     86.0807                36.6116                 2.9039

                     52                     53                     54
                      A                      A                      A
 Frequencies --   1185.5158              1192.7945              1203.5334
 Red. masses --      1.7604                 2.6775                 2.1067
 Frc consts  --      1.4578                 2.2445                 1.7979
 IR Inten    --      9.5580                37.0930                19.3900

                     55                     56                     57
                      A                      A                      A
 Frequencies --   1230.0820              1257.3666              1283.7817
 Red. masses --      1.7492                 2.3601                 1.4679
 Frc consts  --      1.5594                 2.1984                 1.4254
 IR Inten    --     32.7826               166.0099                 9.0133

                     58                     59                     60
                      A                      A                      A
 Frequencies --   1292.7032              1320.2431              1328.5156
 Red. masses --      1.9103                 1.4228                 1.4692
 Frc consts  --      1.8808                 1.4612                 1.5278
 IR Inten    --     47.0170               217.8695                42.7456

                     61                     62                     63
                      A                      A                      A
 Frequencies --   1348.1074              1350.9139              1364.0763
 Red. masses --      1.6132                 5.3700                 1.3360
 Frc consts  --      1.7273                 5.7740                 1.4647
 IR Inten    --      1.7534                60.8526                 3.7864

                     64                     65                     66
                      A                      A                      A
 Frequencies --   1376.1463              1392.5434              1409.3597
 Red. masses --      1.4963                 1.2555                 1.2391
 Frc consts  --      1.6695                 1.4344                 1.4501
 IR Inten    --      4.2509                14.5449                16.1408

                     67                     68                     69
                      A                      A                      A
 Frequencies --   1423.4814              1454.2121              1459.1048
 Red. masses --      2.7447                 1.5930                 2.5866
 Frc consts  --      3.2768                 1.9848                 3.2446
 IR Inten    --    726.3459               310.8140                82.1526

                     70                     71                     72
                      A                      A                      A
 Frequencies --   1474.9043              1479.4040              1482.3898
 Red. masses --      1.7038                 1.1333                 1.1921
 Frc consts  --      2.1837                 1.4614                 1.5435
 IR Inten    --    152.5280                19.1189                15.3750

                     73                     74                     75
                      A                      A                      A
 Frequencies --   1487.7401              1492.3607              1499.1611
 Red. masses --      1.0859                 1.0600                 1.4583
 Frc consts  --      1.4161                 1.3909                 1.9311
 IR Inten    --      5.1109                 4.7091               266.7709

                     76                     77                     78
                      A                      A                      A
 Frequencies --   1500.0682              1529.3708              1572.0079
 Red. masses --      1.9604                 5.1803                 5.3532
 Frc consts  --      2.5991                 7.1389                 7.7942
 IR Inten    --    724.7600                18.1732                16.6449

                     79                     80                     81
                      A                      A                      A
 Frequencies --   1622.9795              1631.3456              2981.3671
 Red. masses --      5.8841                 6.5557                 1.0815
 Frc consts  --      9.1319                10.2792                 5.6636
 IR Inten    --      7.5858                 5.9198                25.0350

                     82                     83                     84
                      A                      A                      A
 Frequencies --   3000.9154              3006.2717              3012.6227
 Red. masses --      1.0591                 1.0364                 1.0397
 Frc consts  --      5.6195                 5.5189                 5.5598
 IR Inten    --     31.2286                58.9907                71.6957

                     85                     86                     87
                      A                      A                      A
 Frequencies --   3036.7681              3038.9741              3064.0433
 Red. masses --      1.0597                 1.0994                 1.1007
 Frc consts  --      5.7576                 5.9823                 6.0882
 IR Inten    --     83.4637                28.0592                 9.0218

                     88                     89                     90
                      A                      A                      A
 Frequencies --   3069.2181              3075.0060              3080.3516
 Red. masses --      1.0996                 1.1019                 1.1026
 Frc consts  --      6.1028                 6.1389                 6.1639
 IR Inten    --    149.8847                67.6378                67.5292

                     91                     92                     93
                      A                      A                      A
 Frequencies --   3088.2360              3158.6160              3172.2286
 Red. masses --      1.1000                 1.0858                 1.0898
 Frc consts  --      6.1809                 6.3826                 6.4615
 IR Inten    --     56.3827                 8.8662                19.8394

                     94                     95                     96
                      A                      A                      A
 Frequencies --   3186.4310              3190.3986              3533.5572
 Red. masses --      1.0920                 1.0949                 1.0639
 Frc consts  --      6.5324                 6.5663                 7.8270
 IR Inten    --     20.6899                36.3905               193.9721

 - Thermochemistry -
 -------------------
 Temperature   298.150 Kelvin.  Pressure   1.00000 Atm.
 Atom     1 has atomic number  6 and mass  12.00000

 Molecular mass:   244.10994 amu.
 Principal axes and moments of inertia in atomic units:
                           1         2         3
     Eigenvalues --  2206.761577895.706279523.41693
           X            0.97401   0.14293   0.17573
           Y           -0.22494   0.70187   0.67586
           Z           -0.02674  -0.69782   0.71577
 This molecule is an asymmetric top.
 Rotational symmetry number  1.
 Warning -- assumption of classical behavior for rotation
           may cause significant error
 Rotational temperatures (Kelvin)      0.03925     0.01097     0.00909
 Rotational constants (GHZ):           0.81782     0.22857     0.18951
 Zero-point vibrational energy     722621.8 (Joules/Mol)
                                  172.71075 (Kcal/Mol)
 Warning -- explicit consideration of  25 degrees of freedom as
           vibrations may cause significant error
 Vibrational temperatures:     40.32    49.80    61.36   135.94   157.40
          (Kelvin)            181.96   230.01   262.83   281.86   321.52
                              357.23   367.58   422.63   446.99   484.57
                              543.93   549.11   567.29   604.47   619.66
                              639.99   666.28   695.04   765.24   821.77
                              923.19   944.39   971.20  1002.91  1016.54
                             1018.39  1088.33  1096.17  1130.30  1189.43
                             1247.21  1267.48  1331.39  1349.83  1359.97
                             1381.31  1407.65  1412.81  1434.41  1473.14
                             1497.45  1516.84  1596.39  1616.88  1636.00
                             1660.49  1705.69  1716.17  1731.62  1769.81
                             1809.07  1847.08  1859.91  1899.54  1911.44
                             1939.63  1943.66  1962.60  1979.97  2003.56
                             2027.75  2048.07  2092.29  2099.33  2122.06
                             2128.53  2132.83  2140.53  2147.17  2156.96
                             2158.26  2200.42  2261.77  2335.11  2347.14
                             4289.52  4317.65  4325.35  4334.49  4369.23
                             4372.41  4408.47  4415.92  4424.25  4431.94
                             4443.28  4544.54  4564.13  4584.56  4590.27
                             5084.00

 Zero-point correction=                           0.275232 (Hartree/Particle)
 Thermal correction to Energy=                    0.291886
 Thermal correction to Enthalpy=                  0.292830
 Thermal correction to Gibbs Free Energy=         0.229487
 Sum of electronic and zero-point Energies=           -807.018735
 Sum of electronic and thermal Energies=              -807.002081
 Sum of electronic and thermal Enthalpies=            -807.001137
 Sum of electronic and thermal Free Energies=         -807.064480

                     E (Thermal)             CV                S
                      KCal/Mol        Cal/Mol-Kelvin    Cal/Mol-Kelvin
 Total                  183.161             64.489            133.317
 Electronic               0.000              0.000              1.377
 Translational            0.889              2.981             42.378
 Rotational               0.889              2.981             33.472
 Vibrational            181.384             58.527             56.089
 Vibration     1          0.593              1.984              5.965
 Vibration     2          0.594              1.983              5.546
 Vibration     3          0.595              1.980              5.132
 Vibration     4          0.603              1.953              3.565
 Vibration     5          0.606              1.942              3.280
 Vibration     6          0.611              1.927              2.999
 Vibration     7          0.622              1.892              2.551
 Vibration     8          0.630              1.863              2.301
 Vibration     9          0.636              1.846              2.171
 Vibration    10          0.649              1.805              1.931
 Vibration    11          0.662              1.766              1.743
 Vibration    12          0.666              1.754              1.692
 Vibration    13          0.689              1.685              1.452
 Vibration    14          0.700              1.653              1.359
 Vibration    15          0.717              1.602              1.227
 Vibration    16          0.748              1.517              1.047
 Vibration    17          0.751              1.509              1.033
 Vibration    18          0.761              1.482              0.984
 Vibration    19          0.783              1.426              0.892
 Vibration    20          0.792              1.403              0.856
 Vibration    21          0.804              1.372              0.812
 Vibration    22          0.821              1.332              0.757
 Vibration    23          0.839              1.288              0.702
 Vibration    24          0.887              1.179              0.583
 Vibration    25          0.927              1.094              0.502

 Optimization completed.
    -- Stationary point found.
 Normal termination of Gaussian 16 at Sun Feb 11 03:07:53 2024.
