 Gaussian 16, Revision A.03,
 Gaussian 16:  ES64L-G16RevA.03 25-Dec-2016

 ----------------------------------------------
 #P UB3LYP/6-311++G(d,p) nosym opt freq SCF=YQC
 ----------------------------------------------

 -------
 Reduced
 -------
 Symbolic Z-matrix:
 Charge = -2 Multiplicity = 1

 SCF Done:  E(UB3LYP) =  -838.378100208     a.u. after   11 cycles
 SCF Done:  E(UB3LYP) =  -838.387392318     A.U. after   33 cycles
 SCF Done:  E(UB3LYP) =  -838.387392318     a.u. after    1 cycles
 SCF Done:  E(UB3LYP) =  -838.408774693     a.u. after   31 cycles
 SCF Done:  E(UB3LYP) =  -838.409388829     A.U. after   33 cycles
 SCF Done:  E(UB3LYP) =  -838.409489869     a.u. after    5 cycles
 SCF Done:  E(UB3LYP) =  -838.411965844     a.u. after   34 cycles
 SCF Done:  E(UB3LYP) =  -838.412417392     A.U. after   33 cycles
 SCF Done:  E(UB3LYP) =  -838.412417392     a.u. after    1 cycles
 SCF Done:  E(UB3LYP) =  -838.408869778     a.u. after   57 cycles
 SCF Done:  E(UB3LYP) =  -838.415496400     a.u. after    1 cycles
 SCF Done:  E(UB3LYP) =  -838.415539580     A.U. after   19 cycles
 SCF Done:  E(UB3LYP) =  -838.415535047     a.u. after    1 cycles
 SCF Done:  E(UB3LYP) =  -838.415539920     A.U. after   23 cycles
 SCF Done:  E(UB3LYP) =  -838.415532714     a.u. after    1 cycles
 SCF Done:  E(UB3LYP) =  -838.415540086     A.U. after   20 cycles
 SCF Done:  E(UB3LYP) =  -838.415538353     a.u. after    1 cycles
 SCF Done:  E(UB3LYP) =  -838.415540120     A.U. after   20 cycles
 Optimization completed.
    -- Stationary point found.
 Normal termination of Gaussian 16 at Thu Dec 28 00:16:36 2023.

 ----------------------------------------------------------------------
 #P Geom=AllCheck Guess=TCheck SCRF=Check GenChk UB3LYP/6-311++G(d,p) F
 req
 ----------------------------------------------------------------------

 Structure from the checkpoint file:  "263-an.chk"
 -------
 Reduced
 -------
 Charge = -2 Multiplicity = 1

                          Input orientation:
 ---------------------------------------------------------------------
 Center     Atomic      Atomic             Coordinates (Angstroms)
 Number     Number       Type             X           Y           Z
 ---------------------------------------------------------------------
      1          6           0       -1.251734    2.855533    0.260425
      2          6           0       -2.589344    2.477928    0.172460
      3          6           0       -2.944529    1.133915   -0.080080
      4          6           0       -0.187655    1.925737    0.103380
      5          6           0       -0.578961    0.549353   -0.183621
      6          6           0       -1.957534    0.186393   -0.229974
      7          6           0        1.234939    2.298418    0.175786
      8          6           0        2.122523    1.222850   -0.135935
      9          6           0        1.723898   -0.079596   -0.452181
     10          6           0        0.371499   -0.485202   -0.497216
     11          8           0        1.664721    3.465667    0.484107
     12          8           0       -0.033662   -1.684073   -0.814469
     13          8           0       -0.976099    4.190058    0.501167
     14          1           0       -3.991492    0.846487   -0.126446
     15          1           0        2.476206   -0.832897   -0.688429
     16          6           0       -2.357873   -1.243047   -0.405701
     17          8           0       -3.008270   -1.698269   -1.331012
     18          8           0       -2.211432   -1.954956    0.772242
     19          6           0       -2.168850   -3.364587    0.600308
     20          1           0       -3.363965    3.228801    0.329514
     21          1           0        3.183221    1.471075   -0.110716
     22          1           0       -1.818491    4.651272    0.408243
     23          1           0       -2.027761   -3.789139    1.598283
     24          1           0       -1.317514   -3.609643   -0.041077
     25          1           0       -3.096291   -3.748221    0.159532
 ---------------------------------------------------------------------

 SCF Done:  E(UB3LYP) =  -838.415540120     a.u. after    1 cycles
 SCF Done:  E(UB3LYP) =  -838.415540120     A.U. after    2 cycles

 Alpha  occ. eigenvalues --  -18.91185 -18.90794 -18.85805 -18.77526 -18.76508
 Alpha  occ. eigenvalues --  -10.05543  -9.99588  -9.98751  -9.93415  -9.92902
 Alpha  occ. eigenvalues --   -9.92591  -9.92372  -9.92179  -9.90773  -9.90508
 Alpha  occ. eigenvalues --   -9.88727  -9.88101  -0.84967  -0.81658  -0.76525
 Alpha  occ. eigenvalues --   -0.68646  -0.68175  -0.59601  -0.52881  -0.51381
 Alpha  occ. eigenvalues --   -0.47836  -0.47156  -0.40598  -0.37892  -0.36255
 Alpha  occ. eigenvalues --   -0.33015  -0.30975  -0.28777  -0.25542  -0.24061
 Alpha  occ. eigenvalues --   -0.23012  -0.22899  -0.21569  -0.20194  -0.18118
 Alpha  occ. eigenvalues --   -0.17359  -0.16290  -0.15737  -0.14233  -0.13032
 Alpha  occ. eigenvalues --   -0.12415  -0.11435  -0.10998  -0.10617  -0.08144
 Alpha  occ. eigenvalues --   -0.08038  -0.07653  -0.06470  -0.05070  -0.03183
 Alpha  occ. eigenvalues --    0.01730   0.02308   0.02638   0.04520   0.06192
 Alpha  occ. eigenvalues --    0.13512
 Alpha virt. eigenvalues --    0.15416   0.16042   0.18239   0.19013   0.19298
 Alpha virt. eigenvalues --    0.20489   0.21178   0.22363   0.22500   0.23811
 Alpha virt. eigenvalues --    0.24712   0.25332   0.26119   0.26408   0.26824

  Beta  occ. eigenvalues --  -18.91185 -18.90794 -18.85805 -18.77526 -18.76508
  Beta  occ. eigenvalues --  -10.05543  -9.99588  -9.98751  -9.93415  -9.92902
  Beta  occ. eigenvalues --   -9.92591  -9.92372  -9.92179  -9.90773  -9.90508
  Beta  occ. eigenvalues --   -9.88727  -9.88101  -0.84967  -0.81658  -0.76525
  Beta  occ. eigenvalues --   -0.68646  -0.68175  -0.59601  -0.52881  -0.51381
  Beta  occ. eigenvalues --   -0.47836  -0.47156  -0.40598  -0.37892  -0.36255
  Beta  occ. eigenvalues --   -0.33015  -0.30975  -0.28777  -0.25542  -0.24061
  Beta  occ. eigenvalues --   -0.23012  -0.22899  -0.21569  -0.20194  -0.18118
  Beta  occ. eigenvalues --   -0.17359  -0.16290  -0.15737  -0.14233  -0.13032
  Beta  occ. eigenvalues --   -0.12415  -0.11435  -0.10998  -0.10617  -0.08144
  Beta  occ. eigenvalues --   -0.08038  -0.07653  -0.06470  -0.05070  -0.03183
  Beta  occ. eigenvalues --    0.01730   0.02308   0.02638   0.04520   0.06192
  Beta  occ. eigenvalues --    0.13512
  Beta virt. eigenvalues --    0.15416   0.16042   0.18239   0.19013   0.19298
  Beta virt. eigenvalues --    0.20489   0.21178   0.22363   0.22500   0.23811
  Beta virt. eigenvalues --    0.24712   0.25332   0.26119   0.26408   0.26824

 Mulliken charges and spin densities:
               1          2
     1  C    0.102821  -0.000000
     2  C   -0.067548  -0.000000
     3  C   -0.330498  -0.000000
     4  C    0.309936  -0.000000
     5  C    0.591275  -0.000000
     6  C    0.899463  -0.000000
     7  C   -0.745022  -0.000000
     8  C    0.038889  -0.000000
     9  C   -0.061341  -0.000000
    10  C   -0.737693  -0.000000
    11  O   -0.516091  -0.000000
    12  O   -0.479453  -0.000000
    13  O   -0.203370   0.000000
    14  H    0.100167  -0.000000
    15  H    0.070070   0.000000
    16  C   -0.701488  -0.000000
    17  O   -0.264066  -0.000000
    18  O   -0.000670   0.000000
    19  C   -0.230902   0.000000
    20  H   -0.316161   0.000001
    21  H    0.069575   0.000000
    22  H    0.093248   0.000000
    23  H    0.093605  -0.000000
    24  H    0.189468   0.000000
    25  H    0.095787  -0.000000
 Sum of Mulliken charges =  -2.00000  -0.00000

 Dipole moment (field-independent basis, Debye):
    X=              1.9426    Y=             -8.7853    Z=              2.1942  Tot=              9.2612
 Quadrupole moment (field-independent basis, Debye-Ang):
   XX=           -148.3896   YY=           -175.5378   ZZ=           -118.6410
   XY=            -19.9155   XZ=             -8.1108   YZ=            -13.6535

  Exact polarizability:1084.643-783.7531197.798 -78.206  98.016 134.481
 Approx polarizability:1208.636-634.1441035.162 -56.744 101.815 203.177

                      1                      2                      3
                      A                      A                      A
 Frequencies --     38.5220                77.2381                82.3631
 Red. masses --      7.6846                 5.9899                 5.7594
 Frc consts  --      0.0067                 0.0211                 0.0230
 IR Inten    --      7.8843                10.4306                 1.8452

                      4                      5                      6
                      A                      A                      A
 Frequencies --    102.1932               115.1967               157.9382
 Red. masses --      2.9189                 5.3703                 1.5100
 Frc consts  --      0.0180                 0.0420                 0.0222
 IR Inten    --     54.6658                 3.8933                14.0719

                      7                      8                      9
                      A                      A                      A
 Frequencies --    169.4650               224.7615               249.3950
 Red. masses --      3.1450                 5.3828                 6.8721
 Frc consts  --      0.0532                 0.1602                 0.2518
 IR Inten    --     27.1001                13.4041                 2.1316

                     10                     11                     12
                      A                      A                      A
 Frequencies --    263.9309               301.3747               314.4764
 Red. masses --      6.2585                 8.1042                 7.3107
 Frc consts  --      0.2569                 0.4337                 0.4260
 IR Inten    --    186.5076               166.2884               198.7187

                     13                     14                     15
                      A                      A                      A
 Frequencies --    335.3662               345.2263               360.3166
 Red. masses --      4.7488                 4.5154                 1.3738
 Frc consts  --      0.3147                 0.3171                 0.1051
 IR Inten    --    272.9727               121.5332                43.9665

                     16                     17                     18
                      A                      A                      A
 Frequencies --    381.2350               432.4502               440.6339
 Red. masses --      8.0915                 5.5314                 8.9831
 Frc consts  --      0.6929                 0.6095                 1.0276
 IR Inten    --      0.4082               921.4465               877.4720

                     19                     20                     21
                      A                      A                      A
 Frequencies --    469.4776               483.8816               557.6579
 Red. masses --      4.9242                 5.2102                 2.6838
 Frc consts  --      0.6395                 0.7188                 0.4917
 IR Inten    --     69.6508                 8.8015                17.0511

                     22                     23                     24
                      A                      A                      A
 Frequencies --    575.0482               624.2875               652.2420
 Red. masses --      7.4580                 4.8827                 4.2020
 Frc consts  --      1.4531                 1.1212                 1.0532
 IR Inten    --      4.9262               266.8047                74.0869

                     25                     26                     27
                      A                      A                      A
 Frequencies --    663.2603               678.9581               704.4329
 Red. masses --      2.4889                 3.1485                 6.6454
 Frc consts  --      0.6451                 0.8552                 1.9429
 IR Inten    --     13.8011                40.7731               807.5219

                     28                     29                     30
                      A                      A                      A
 Frequencies --    720.1523               762.9560               774.1603
 Red. masses --      2.5483                 6.2256                 5.3631
 Frc consts  --      0.7787                 2.1352                 1.8938
 IR Inten    --    236.9941                43.9386               108.4365

                     31                     32                     33
                      A                      A                      A
 Frequencies --    788.2906               811.3916               832.4964
 Red. masses --      5.7257                 2.5613                 1.4484
 Frc consts  --      2.0963                 0.9935                 0.5914
 IR Inten    --     10.5802                29.3091                18.9885

                     34                     35                     36
                      A                      A                      A
 Frequencies --    870.4362               874.0356               932.3052
 Red. masses --      6.3199                 1.3675                 6.4734
 Frc consts  --      2.8212                 0.6155                 3.3151
 IR Inten    --    261.1449                 3.4150               708.3478

                     37                     38                     39
                      A                      A                      A
 Frequencies --   1010.4450              1067.4624              1089.5821
 Red. masses --      6.1261                 1.7483                 5.9744
 Frc consts  --      3.6852                 1.1737                 4.1789
 IR Inten    --    104.7678              1389.0525               123.4993

                     40                     41                     42
                      A                      A                      A
 Frequencies --   1134.9086              1150.7074              1163.6922
 Red. masses --      2.1092                 1.7008                 1.4088
 Frc consts  --      1.6006                 1.3269                 1.1240
 IR Inten    --    128.1250                95.3255                26.2559

                     43                     44                     45
                      A                      A                      A
 Frequencies --   1194.2954              1202.4303              1206.1787
 Red. masses --      3.1650                 1.7513                 1.7958
 Frc consts  --      2.6598                 1.4918                 1.5393
 IR Inten    --    680.3466                69.6744                29.4065

                     46                     47                     48
                      A                      A                      A
 Frequencies --   1223.9095              1256.4984              1301.1275
 Red. masses --      2.5080                 2.7765                 4.1291
 Frc consts  --      2.2134                 2.5827                 4.1185
 IR Inten    --    274.9941               876.2578               603.7860

                     49                     50                     51
                      A                      A                      A
 Frequencies --   1305.2484              1355.0560              1401.2256
 Red. masses --      2.5087                 4.4778                 4.3147
 Frc consts  --      2.5182                 4.8443                 4.9913
 IR Inten    --   1652.5657              3648.8066                34.6744

                     52                     53                     54
                      A                      A                      A
 Frequencies --   1412.4500              1436.3792              1459.5709
 Red. masses --      8.9547                 1.2333                 2.4895
 Frc consts  --     10.5256                 1.4991                 3.1248
 IR Inten    --    671.7287                99.4160               192.8085

                     55                     56                     57
                      A                      A                      A
 Frequencies --   1467.7862              1503.3927              1509.3674
 Red. masses --      1.0861                 1.0547                 4.9201
 Frc consts  --      1.3786                 1.4045                 6.6042
 IR Inten    --     28.5861                 6.4070              1179.8733

                     58                     59                     60
                      A                      A                      A
 Frequencies --   1524.9463              1539.8337              1589.9515
 Red. masses --      4.5504                 5.9054                 5.2787
 Frc consts  --      6.2345                 8.2498                 7.8622
 IR Inten    --    919.4970              6141.9168               813.8315

                     61                     62                     63
                      A                      A                      A
 Frequencies --   1702.6631              2993.7383              3057.5541
 Red. masses --     11.8023                 1.0324                 1.0989
 Frc consts  --     20.1593                 5.4515                 6.0528
 IR Inten    --    642.9882               353.9977                70.1036

                     64                     65                     66
                      A                      A                      A
 Frequencies --   3079.4990              3086.7645              3087.4857
 Red. masses --      1.0835                 1.0866                 1.1047
 Frc consts  --      6.0540                 6.0997                 6.2047
 IR Inten    --    172.3098                28.0773                26.9984

                     67                     68                     69
                      A                      A                      A
 Frequencies --   3108.0876              3136.4289              3756.1242
 Red. masses --      1.0912                 1.0908                 1.0649
 Frc consts  --      6.2106                 6.3220                 8.8520
 IR Inten    --    827.5523                62.0440              2222.6661

 - Thermochemistry -
 -------------------
 Temperature   298.150 Kelvin.  Pressure   1.00000 Atm.
 Atom     1 has atomic number  6 and mass  12.00000

 Molecular mass:   232.03717 amu.
 Principal axes and moments of inertia in atomic units:
                           1         2         3
     Eigenvalues --  2138.966034752.525056438.21715
           X            0.44941   0.89258   0.03652
           Y            0.88997  -0.44380  -0.10485
           Z            0.07738  -0.07963   0.99382
 This molecule is an asymmetric top.
 Rotational symmetry number  1.
 Warning -- assumption of classical behavior for rotation
           may cause significant error
 Rotational temperatures (Kelvin)      0.04049     0.01822     0.01345
 Rotational constants (GHZ):           0.84374     0.37974     0.28032
 Zero-point vibrational energy     452680.9 (Joules/Mol)
                                  108.19334 (Kcal/Mol)
 Warning -- explicit consideration of  22 degrees of freedom as
           vibrations may cause significant error
 Vibrational temperatures:     55.42   111.13   118.50   147.03   165.74
          (Kelvin)            227.24   243.82   323.38   358.82   379.74
                              433.61   452.46   482.52   496.70   518.42
                              548.51   622.20   633.97   675.47   696.20
                              802.35   827.37   898.21   938.43   954.28
                              976.87  1013.52  1036.14  1097.72  1113.84
                             1134.17  1167.41  1197.78  1252.36  1257.54
                             1341.38  1453.81  1535.84  1567.67  1632.88
                             1655.61  1674.29  1718.32  1730.03  1735.42
                             1760.93  1807.82  1872.03  1877.96  1949.62
                             2016.05  2032.20  2066.63  2100.00  2111.82
                             2163.05  2171.64  2194.06  2215.48  2287.59
                             2449.75  4307.32  4399.14  4430.71  4441.17
                             4442.20  4471.84  4512.62  5404.22

 Zero-point correction=                           0.172417 (Hartree/Particle)
 Thermal correction to Energy=                    0.187081
 Thermal correction to Enthalpy=                  0.188025
 Thermal correction to Gibbs Free Energy=         0.130727
 Sum of electronic and zero-point Energies=           -838.243123
 Sum of electronic and thermal Energies=              -838.228459
 Sum of electronic and thermal Enthalpies=            -838.227515
 Sum of electronic and thermal Free Energies=         -838.284813

                     E (Thermal)             CV                S
                      KCal/Mol        Cal/Mol-Kelvin    Cal/Mol-Kelvin
 Total                  117.395             56.045            120.593
 Electronic               0.000              0.000              0.000
 Translational            0.889              2.981             42.227
 Rotational               0.889              2.981             32.548
 Vibrational            115.617             50.083             45.817
 Vibration     1          0.594              1.981              5.334
 Vibration     2          0.599              1.964              3.960
 Vibration     3          0.600              1.961              3.834
 Vibration     4          0.604              1.947              3.412
 Vibration     5          0.608              1.937              3.179
 Vibration     6          0.621              1.894              2.574
 Vibration     7          0.625              1.880              2.441
 Vibration     8          0.649              1.803              1.920
 Vibration     9          0.662              1.764              1.735
 Vibration    10          0.670              1.739              1.636
 Vibration    11          0.693              1.671              1.409
 Vibration    12          0.702              1.646              1.339
 Vibration    13          0.716              1.605              1.234
 Vibration    14          0.724              1.585              1.188
 Vibration    15          0.735              1.554              1.121
 Vibration    16          0.751              1.510              1.034
 Vibration    17          0.793              1.400              0.851
 Vibration    18          0.801              1.382              0.825
 Vibration    19          0.827              1.318              0.739
 Vibration    20          0.840              1.286              0.700
 Vibration    21          0.913              1.123              0.529
 Vibration    22          0.931              1.085              0.495

                           ! Non-Optimized Parameters !
 Normal termination of Gaussian 16 at Thu Dec 28 00:38:11 2023.
