 Q-Chem 5.4, Q-Chem, Inc., Pleasanton, CA (2021)
 Q-Chem 5.4.0 for Intel X86 EM64T Linux

User input:
--------------------------------------------------------------
$molecule
-2 1
C                  4.7652990000     -3.0783630000      0.3361300000
C                  5.6767100000     -2.2857210000     -0.3207360000
C                  5.2549490000     -1.0814170000     -0.9522380000
C                  3.3846610000     -2.7245030000      0.4061700000
C                  2.9576650000     -1.5036020000     -0.2339830000
C                  3.9272720000     -0.7149960000     -0.9006540000
C                  2.4475060000     -3.5317320000      1.0776180000
C                  1.0887980000     -3.1514920000      1.1258550000
C                  0.6562700000     -1.9330070000      0.4910060000
C                  1.5816040000     -1.0823460000     -0.2036450000
C                  0.1318010000     -4.0107710000      1.8420290000
C                 -1.2115050000     -3.5853210000      1.8266400000
C                 -0.7395180000     -1.5638350000      0.5614690000
C                 -1.6407410000     -2.3623970000      1.2088500000
O                  2.8853220000     -4.6855510000      1.6723610000
O                  1.2036010000      0.0205340000     -0.7818970000
O                  0.5443280000     -5.0724510000      2.4558110000
H                  5.0752980000     -3.9977070000      0.8199090000
H                  6.7235950000     -2.5790660000     -0.3587850000
H                  5.9786310000     -0.4573500000     -1.4710480000
H                  2.0457020000     -5.0647630000      2.0925050000
O                 -1.1530130000     -0.4019020000     -0.0323260000
H                 -2.6824160000     -2.0764490000      1.2511090000
H                 -0.3041360000     -0.0202040000     -0.4382030000
H                  3.5726800000      0.1959600000     -1.3710630000
S                 -2.4427200000     -4.5815310000      2.5778580000
O                 -3.7120250000     -3.8440440000      2.5987890000
O                 -2.4775950000     -5.9696800000      2.0916620000
O                 -2.0537270000     -4.6909680000      4.2129750000
C                 -1.3819570000     -5.8773110000      4.6678410000
H                 -0.4694940000     -6.0370850000      4.0924450000
H                 -2.0434880000     -6.7465450000      4.5936840000
H                 -1.1476900000     -5.6787760000      5.7175090000
$end

$rem
BASIS  =  6-311++G(d,p)
GUI  =  2
JOB_TYPE  =  SP
METHOD  =  B3LYP
SCF_CONVERGENCE  = 8
SOLVENT_METHOD = sm12
$end

$smx
solvent dimethylformamide
charges CM5
$end

--------------------------------------------------------------

             Standard Nuclear Orientation (Angstroms)
    I     Atom           X                Y                Z
 ----------------------------------------------------------------
    1      C       4.7652990000    -3.0783630000     0.3361300000
    2      C       5.6767100000    -2.2857210000    -0.3207360000
    3      C       5.2549490000    -1.0814170000    -0.9522380000
    4      C       3.3846610000    -2.7245030000     0.4061700000
    5      C       2.9576650000    -1.5036020000    -0.2339830000
    6      C       3.9272720000    -0.7149960000    -0.9006540000
    7      C       2.4475060000    -3.5317320000     1.0776180000
    8      C       1.0887980000    -3.1514920000     1.1258550000
    9      C       0.6562700000    -1.9330070000     0.4910060000
   10      C       1.5816040000    -1.0823460000    -0.2036450000
   11      C       0.1318010000    -4.0107710000     1.8420290000
   12      C      -1.2115050000    -3.5853210000     1.8266400000
   13      C      -0.7395180000    -1.5638350000     0.5614690000
   14      C      -1.6407410000    -2.3623970000     1.2088500000
   15      O       2.8853220000    -4.6855510000     1.6723610000
   16      O       1.2036010000     0.0205340000    -0.7818970000
   17      O       0.5443280000    -5.0724510000     2.4558110000
   18      H       5.0752980000    -3.9977070000     0.8199090000
   19      H       6.7235950000    -2.5790660000    -0.3587850000
   20      H       5.9786310000    -0.4573500000    -1.4710480000
   21      H       2.0457020000    -5.0647630000     2.0925050000
   22      O      -1.1530130000    -0.4019020000    -0.0323260000
   23      H      -2.6824160000    -2.0764490000     1.2511090000
   24      H      -0.3041360000    -0.0202040000    -0.4382030000
   25      H       3.5726800000     0.1959600000    -1.3710630000
   26      S      -2.4427200000    -4.5815310000     2.5778580000
   27      O      -3.7120250000    -3.8440440000     2.5987890000
   28      O      -2.4775950000    -5.9696800000     2.0916620000
   29      O      -2.0537270000    -4.6909680000     4.2129750000
   30      C      -1.3819570000    -5.8773110000     4.6678410000
   31      H      -0.4694940000    -6.0370850000     4.0924450000
   32      H      -2.0434880000    -6.7465450000     4.5936840000
   33      H      -1.1476900000    -5.6787760000     5.7175090000
 ----------------------------------------------------------------

   16   -1502.7145675586      3.88e-09  Convergence criterion met
 Total energy in the final basis set =    -1502.9647716675

                    Orbital Energies (a.u.)
 --------------------------------------------------------------

 Alpha MOs
 -- Occupied --
-89.0607 -19.1479 -19.1108 -19.1082 -19.1079 -19.1035 -19.0660 -19.0561
-10.2261 -10.2121 -10.2107 -10.2093 -10.2091 -10.1793 -10.1771 -10.1768
-10.1762 -10.1743 -10.1739 -10.1714 -10.1675 -10.1650 -10.1549  -8.1209
 -6.0848  -6.0833  -6.0811  -1.1215  -1.0303  -1.0218  -1.0145  -0.9958
 -0.9799  -0.9667  -0.8590  -0.8311  -0.7915  -0.7564  -0.7472  -0.7233
 -0.7059  -0.6770  -0.6499  -0.6284  -0.6014  -0.5745  -0.5715  -0.5394
 -0.5313  -0.5099  -0.5032  -0.4861  -0.4809  -0.4673  -0.4610  -0.4532
 -0.4435  -0.4348  -0.4278  -0.4226  -0.4215  -0.4204  -0.4074  -0.3926
 -0.3884  -0.3832  -0.3772  -0.3727  -0.3671  -0.3552  -0.3462  -0.3426
 -0.3357  -0.3351  -0.3255  -0.3159  -0.3059  -0.2961  -0.2940  -0.2802
 -0.2632  -0.2548  -0.2442  -0.2420  -0.2268  -0.1920  -0.1401

          Ground-State Mulliken Net Atomic Charges

     Atom                 Charge (a.u.)
  ----------------------------------------
      1 C                     0.530889
      2 C                     1.459287
      3 C                     1.462798
      4 C                    -0.058024
      5 C                    -1.834922
      6 C                     0.605709
      7 C                    -0.848202
      8 C                    -0.757927
      9 C                    -0.798968
     10 C                    -1.846923
     11 C                    -1.129025
     12 C                    -0.412159
     13 C                    -0.971688
     14 C                    -0.163506
     15 O                    -0.285662
     16 O                    -0.389749
     17 O                    -0.257582
     18 H                     0.182722
     19 H                     0.406690
     20 H                     0.386028
     21 H                     0.460233
     22 O                    -0.307141
     23 H                     0.147191
     24 H                     0.369861
     25 H                     0.202730
     26 S                     1.810505
     27 O                    -0.173977
     28 O                    -0.113996
     29 O                    -0.103354
     30 C                    -0.113005
     31 H                     0.132827
     32 H                     0.186520
     33 H                     0.221819
  ----------------------------------------
  Sum of atomic charges =    -2.000000

                    Cartesian Multipole Moments
 -----------------------------------------------------------------
    Charge (ESU x 10^10)
                -9.6064
    Dipole Moment (Debye)
         X      -0.9160      Y      26.8679      Z      -9.4210
       Tot      28.4865
    Quadrupole Moments (Debye-Ang)
        XX    -219.9959     XY     -11.8396     YY    -271.0260
        XZ      19.0832     YZ      47.2343     ZZ    -176.8178

 Total job time:  1093.37s(wall), 8562.98s(cpu)
        *  Thank you very much for using Q-Chem.  Have a nice day.  *
