 Gaussian 16, Revision A.03,
 Gaussian 16:  ES64L-G16RevA.03 25-Dec-2016

 --------------------------------------
 #P UB3LYP/6-311++G(d,p) nosym opt freq
 --------------------------------------

 -------
 Reduced
 -------
 Symbolic Z-matrix:
 Charge = -2 Multiplicity = 1

 SCF Done:  E(UB3LYP) =  -1502.72074004     A.U. after   23 cycles
 SCF Done:  E(UB3LYP) =  -1502.72074002     A.U. after    9 cycles
 Optimization completed.
    -- Stationary point found.
 Normal termination of Gaussian 16 at Sun Jan  7 05:20:28 2024.

 ----------------------------------------------------------------------
 #P Geom=AllCheck Guess=TCheck SCRF=Check GenChk UB3LYP/6-311++G(d,p) F
 req
 ----------------------------------------------------------------------

 Structure from the checkpoint file:  "195-an.chk"
 -------
 Reduced
 -------
 Charge = -2 Multiplicity = 1

                          Input orientation:
 ---------------------------------------------------------------------
 Center     Atomic      Atomic             Coordinates (Angstroms)
 Number     Number       Type             X           Y           Z
 ---------------------------------------------------------------------
      1          6           0        4.765299   -3.078363    0.336130
      2          6           0        5.676710   -2.285721   -0.320736
      3          6           0        5.254949   -1.081417   -0.952238
      4          6           0        3.384661   -2.724503    0.406170
      5          6           0        2.957665   -1.503602   -0.233983
      6          6           0        3.927272   -0.714996   -0.900654
      7          6           0        2.447506   -3.531732    1.077618
      8          6           0        1.088798   -3.151492    1.125855
      9          6           0        0.656270   -1.933007    0.491006
     10          6           0        1.581604   -1.082346   -0.203645
     11          6           0        0.131801   -4.010771    1.842029
     12          6           0       -1.211505   -3.585321    1.826640
     13          6           0       -0.739518   -1.563835    0.561469
     14          6           0       -1.640741   -2.362397    1.208850
     15          8           0        2.885322   -4.685551    1.672361
     16          8           0        1.203601    0.020534   -0.781897
     17          8           0        0.544328   -5.072451    2.455811
     18          1           0        5.075298   -3.997707    0.819909
     19          1           0        6.723595   -2.579066   -0.358785
     20          1           0        5.978631   -0.457350   -1.471048
     21          1           0        2.045702   -5.064763    2.092505
     22          8           0       -1.153013   -0.401902   -0.032326
     23          1           0       -2.682416   -2.076449    1.251109
     24          1           0       -0.304136   -0.020204   -0.438203
     25          1           0        3.572680    0.195960   -1.371063
     26         16           0       -2.442720   -4.581531    2.577858
     27          8           0       -3.712025   -3.844044    2.598789
     28          8           0       -2.477595   -5.969680    2.091662
     29          8           0       -2.053727   -4.690968    4.212975
     30          6           0       -1.381957   -5.877311    4.667841
     31          1           0       -0.469494   -6.037085    4.092445
     32          1           0       -2.043488   -6.746545    4.593684
     33          1           0       -1.147690   -5.678776    5.717509
 ---------------------------------------------------------------------

 SCF Done:  E(UB3LYP) =  -1502.72074002     A.U. after    2 cycles

 Alpha  occ. eigenvalues --  -88.84913 -18.94406 -18.89769 -18.89729 -18.88962
 Alpha  occ. eigenvalues --  -18.87897 -18.84556 -18.83199 -10.01715 -10.00447
 Alpha  occ. eigenvalues --   -9.98921  -9.98699  -9.98409  -9.96816  -9.96405
 Alpha  occ. eigenvalues --   -9.96215  -9.95898  -9.95816  -9.95229  -9.94789
 Alpha  occ. eigenvalues --   -9.94558  -9.94080  -9.93037  -7.90955  -5.87352
 Alpha  occ. eigenvalues --   -5.87187  -5.86956  -0.91255  -0.81087  -0.80905
 Alpha  occ. eigenvalues --   -0.79743  -0.78566  -0.75885  -0.74257  -0.64165
 Alpha  occ. eigenvalues --   -0.60964  -0.57199  -0.53979  -0.53198  -0.50989
 Alpha  occ. eigenvalues --   -0.49256  -0.45983  -0.43334  -0.40917  -0.38751
 Alpha  occ. eigenvalues --   -0.35837  -0.35198  -0.32628  -0.31547  -0.29377
 Alpha  occ. eigenvalues --   -0.28965  -0.26990  -0.26634  -0.26010  -0.24736
 Alpha  occ. eigenvalues --   -0.24095  -0.23416  -0.22710  -0.21314  -0.20588
 Alpha  occ. eigenvalues --   -0.20272  -0.19768  -0.18943  -0.17575  -0.17076
 Alpha  occ. eigenvalues --   -0.16550  -0.16045  -0.15449  -0.14767  -0.13746
 Alpha  occ. eigenvalues --   -0.12986  -0.12621  -0.12479  -0.11501  -0.10677
 Alpha  occ. eigenvalues --   -0.10343  -0.09701  -0.09099  -0.08458  -0.05884
 Alpha  occ. eigenvalues --   -0.04468  -0.03660  -0.02308  -0.02069  -0.00437
 Alpha  occ. eigenvalues --    0.03126   0.08242
 Alpha virt. eigenvalues --    0.14260   0.15345   0.16114   0.17053   0.18383
 Alpha virt. eigenvalues --    0.18441   0.18968   0.19303   0.19918   0.20669
 Alpha virt. eigenvalues --    0.22274   0.22490   0.22918   0.23012   0.24155

  Beta  occ. eigenvalues --  -88.84913 -18.94406 -18.89769 -18.89729 -18.88962
  Beta  occ. eigenvalues --  -18.87897 -18.84556 -18.83199 -10.01715 -10.00447
  Beta  occ. eigenvalues --   -9.98921  -9.98699  -9.98409  -9.96816  -9.96405
  Beta  occ. eigenvalues --   -9.96215  -9.95898  -9.95816  -9.95229  -9.94789
  Beta  occ. eigenvalues --   -9.94558  -9.94080  -9.93037  -7.90955  -5.87352
  Beta  occ. eigenvalues --   -5.87187  -5.86956  -0.91255  -0.81087  -0.80905
  Beta  occ. eigenvalues --   -0.79743  -0.78566  -0.75885  -0.74257  -0.64165
  Beta  occ. eigenvalues --   -0.60964  -0.57199  -0.53979  -0.53198  -0.50989
  Beta  occ. eigenvalues --   -0.49256  -0.45983  -0.43334  -0.40917  -0.38751
  Beta  occ. eigenvalues --   -0.35837  -0.35198  -0.32628  -0.31547  -0.29377
  Beta  occ. eigenvalues --   -0.28965  -0.26990  -0.26634  -0.26010  -0.24736
  Beta  occ. eigenvalues --   -0.24095  -0.23416  -0.22710  -0.21314  -0.20588
  Beta  occ. eigenvalues --   -0.20272  -0.19768  -0.18943  -0.17575  -0.17076
  Beta  occ. eigenvalues --   -0.16550  -0.16045  -0.15449  -0.14767  -0.13746
  Beta  occ. eigenvalues --   -0.12986  -0.12621  -0.12479  -0.11501  -0.10677
  Beta  occ. eigenvalues --   -0.10343  -0.09701  -0.09099  -0.08458  -0.05884
  Beta  occ. eigenvalues --   -0.04468  -0.03660  -0.02308  -0.02069  -0.00437
  Beta  occ. eigenvalues --    0.03126   0.08242
  Beta virt. eigenvalues --    0.14260   0.15345   0.16114   0.17053   0.18383
  Beta virt. eigenvalues --    0.18441   0.18968   0.19303   0.19918   0.20669
  Beta virt. eigenvalues --    0.22274   0.22490   0.22918   0.23012   0.24155

 Mulliken charges and spin densities:
               1          2
     1  C   -0.271616   0.000000
     2  C   -0.384024   0.000000
     3  C   -0.489261  -0.000000
     4  C    0.382079   0.000000
     5  C    0.283266   0.000000
     6  C   -0.125590  -0.000000
     7  C   -0.188907  -0.000000
     8  C    0.647679  -0.000000
     9  C    0.836926  -0.000000
    10  C   -0.485759   0.000000
    11  C   -0.836184   0.000000
    12  C   -0.923009  -0.000000
    13  C   -0.411127   0.000000
    14  C   -0.225974   0.000000
    15  O   -0.462786   0.000000
    16  O   -0.531930   0.000000
    17  O   -0.441626  -0.000000
    18  H    0.119954  -0.000000
    19  H    0.095285  -0.000000
    20  H    0.091480  -0.000000
    21  H    0.441529  -0.000000
    22  O   -0.428059  -0.000000
    23  H    0.198629  -0.000000
    24  H    0.360503   0.000000
    25  H    0.149747   0.000000
    26  S    1.120218  -0.000000
    27  O   -0.234018   0.000000
    28  O   -0.225546  -0.000000
    29  O   -0.166934  -0.000000
    30  C   -0.336956   0.000000
    31  H    0.234364  -0.000000
    32  H    0.124653   0.000000
    33  H    0.082994   0.000000
 Sum of Mulliken charges =  -2.00000   0.00000

 Dipole moment (field-independent basis, Debye):
    X=             -2.6783    Y=             27.3060    Z=             -9.6307  Tot=             29.0782
 Quadrupole moment (field-independent basis, Debye-Ang):
   XX=           -234.2994   YY=           -276.0076   ZZ=           -181.5300
   XY=            -10.3263   XZ=             22.5088   YZ=             51.6795

  Exact polarizability: 416.438  38.335 253.379 -80.352 -82.032 210.700
 Approx polarizability: 689.732   7.902 442.222 -99.199-130.585 324.694

                      1                      2                      3
                      A                      A                      A
 Frequencies --     35.8994                37.7830                78.5909
 Red. masses --      7.3834                 6.1914                 8.1654
 Frc consts  --      0.0056                 0.0052                 0.0297
 IR Inten    --      0.3785                 0.7912                 1.3578

                      4                      5                      6
                      A                      A                      A
 Frequencies --     92.0405               105.4934               119.8120
 Red. masses --      6.1744                 2.3180                 2.3010
 Frc consts  --      0.0308                 0.0152                 0.0195
 IR Inten    --      0.2754                 0.0804                 0.5182

                      7                      8                      9
                      A                      A                      A
 Frequencies --    137.6644               144.3671               150.9639
 Red. masses --      2.3747                 5.1334                 6.2184
 Frc consts  --      0.0265                 0.0630                 0.0835
 IR Inten    --      2.5720                 0.0091                 1.0136

                     10                     11                     12
                      A                      A                      A
 Frequencies --    176.9169               210.6198               236.7065
 Red. masses --      8.2108                 8.3174                 7.5405
 Frc consts  --      0.1514                 0.2174                 0.2489
 IR Inten    --      0.8734                 1.4979                 6.9188

                     13                     14                     15
                      A                      A                      A
 Frequencies --    250.0039               261.2363               281.8817
 Red. masses --      9.1072                 4.2779                 8.0118
 Frc consts  --      0.3354                 0.1720                 0.3751
 IR Inten    --      0.5021                 5.7480                 5.8886

                     16                     17                     18
                      A                      A                      A
 Frequencies --    298.2889               341.5027               364.8110
 Red. masses --      7.3419                 7.0240                11.0781
 Frc consts  --      0.3849                 0.4826                 0.8687
 IR Inten    --      2.3151                12.0504                 6.6924

                     19                     20                     21
                      A                      A                      A
 Frequencies --    383.5183               390.6922               397.2431
 Red. masses --      8.8066                 7.7139                 7.6814
 Frc consts  --      0.7632                 0.6937                 0.7142
 IR Inten    --     18.0317                 4.4460                64.9563

                     22                     23                     24
                      A                      A                      A
 Frequencies --    430.4647               436.6831               447.1220
 Red. masses --      8.6241                 6.9274                 3.7359
 Frc consts  --      0.9415                 0.7783                 0.4401
 IR Inten    --      0.5176                 0.6237                 3.6922

                     25                     26                     27
                      A                      A                      A
 Frequencies --    469.7775               480.9979               495.7348
 Red. masses --     10.8341                11.4217                 7.2995
 Frc consts  --      1.4087                 1.5569                 1.0569
 IR Inten    --      4.3939                 2.6139                16.7903

                     28                     29                     30
                      A                      A                      A
 Frequencies --    508.0225               538.7174               547.2001
 Red. masses --      5.5133                 8.9059                 8.5110
 Frc consts  --      0.8384                 1.5228                 1.5015
 IR Inten    --     14.8342                22.8914                10.2264

                     31                     32                     33
                      A                      A                      A
 Frequencies --    582.1242               605.4795               620.8282
 Red. masses --     10.3468                 4.0135                 7.1496
 Frc consts  --      2.0658                 0.8669                 1.6236
 IR Inten    --    111.8566                 9.0548               314.4124

                     34                     35                     36
                      A                      A                      A
 Frequencies --    640.9164               646.0521               697.7805
 Red. masses --      7.1920                 6.7236                 7.7613
 Frc consts  --      1.7406                 1.6534                 2.2265
 IR Inten    --    196.3644                 4.2493                66.3366

                     37                     38                     39
                      A                      A                      A
 Frequencies --    711.5240               735.9720               736.9502
 Red. masses --      2.7660                 2.5192                 4.9646
 Frc consts  --      0.8250                 0.8040                 1.5886
 IR Inten    --     18.6637                30.3402                14.2979

                     40                     41                     42
                      A                      A                      A
 Frequencies --    764.2390               782.4683               795.4511
 Red. masses --      3.8328                 3.8128                 7.9998
 Frc consts  --      1.3189                 1.3754                 2.9823
 IR Inten    --      8.5018                 4.1271                22.7617

                     43                     44                     45
                      A                      A                      A
 Frequencies --    812.3430               819.0745               881.0404
 Red. masses --      1.5083                 1.9041                 8.7073
 Frc consts  --      0.5864                 0.7526                 3.9822
 IR Inten    --     24.5747                 2.3882               127.7703

                     46                     47                     48
                      A                      A                      A
 Frequencies --    906.3371               948.4275               958.3890
 Red. masses --      8.1698                 1.2545                 1.0677
 Frc consts  --      3.9540                 0.6649                 0.5778
 IR Inten    --     61.7827                 8.2469                45.5109

                     49                     50                     51
                      A                      A                      A
 Frequencies --    961.6701               965.4507               984.0001
 Red. masses --      1.1015                 1.2334                 6.2675
 Frc consts  --      0.6002                 0.6774                 3.5755
 IR Inten    --     65.5239                11.1298               135.9856

                     52                     53                     54
                      A                      A                      A
 Frequencies --   1014.8498              1018.7129              1076.7239
 Red. masses --      9.9957                 2.2544                 8.6430
 Frc consts  --      6.0655                 1.3784                 5.9037
 IR Inten    --    100.9543                57.7318               286.5195

                     55                     56                     57
                      A                      A                      A
 Frequencies --   1085.1124              1099.7862              1146.1816
 Red. masses --      4.5263                 2.9698                 1.2810
 Frc consts  --      3.1401                 2.1164                 0.9915
 IR Inten    --    401.6654                21.3888                44.6324

                     58                     59                     60
                      A                      A                      A
 Frequencies --   1172.2890              1175.3152              1179.5621
 Red. masses --      1.2758                 1.8158                 2.3535
 Frc consts  --      1.0330                 1.4778                 1.9293
 IR Inten    --      5.1083                64.1073                13.0503

                     61                     62                     63
                      A                      A                      A
 Frequencies --   1189.0467              1241.0406              1245.9065
 Red. masses --      1.3397                 4.6069                 6.1936
 Frc consts  --      1.1160                 4.1805                 5.6646
 IR Inten    --     16.3927               229.3701                49.0320

                     64                     65                     66
                      A                      A                      A
 Frequencies --   1249.2929              1282.9014              1309.7041
 Red. masses --      3.7626                 4.1203                 4.3764
 Frc consts  --      3.4599                 3.9955                 4.4230
 IR Inten    --    145.8626                19.8969                 0.1667

                     67                     68                     69
                      A                      A                      A
 Frequencies --   1314.5378              1348.7071              1376.2534
 Red. masses --      2.9695                 7.8870                 5.8900
 Frc consts  --      3.0233                 8.4528                 6.5730
 IR Inten    --    124.4965               214.1914                60.9033

                     70                     71                     72
                      A                      A                      A
 Frequencies --   1397.6446              1427.4250              1442.1860
 Red. masses --      3.6746                 3.4717                 1.8765
 Frc consts  --      4.2291                 4.1678                 2.2996
 IR Inten    --     19.3714                73.3816               599.5300

                     73                     74                     75
                      A                      A                      A
 Frequencies --   1453.7861              1466.6494              1470.7432
 Red. masses --      1.5976                 1.1022                 3.5283
 Frc consts  --      1.9894                 1.3969                 4.4967
 IR Inten    --    321.3480                13.3732               195.4404

                     76                     77                     78
                      A                      A                      A
 Frequencies --   1500.4768              1513.2309              1537.2953
 Red. masses --      2.9316                 1.0580                 6.7786
 Frc consts  --      3.8888                 1.4274                 9.4385
 IR Inten    --     22.7302                 3.9289                80.7466

                     79                     80                     81
                      A                      A                      A
 Frequencies --   1551.5556              1583.1390              1611.6792
 Red. masses --      3.0480                 4.0953                 4.8407
 Frc consts  --      4.3231                 6.0474                 7.4082
 IR Inten    --    286.8483                10.4423                12.1661

                     82                     83                     84
                      A                      A                      A
 Frequencies --   1644.3997              1671.9115              2805.9607
 Red. masses --      1.7634                 2.1422                 1.0785
 Frc consts  --      2.8094                 3.5281                 5.0029
 IR Inten    --     24.7036                15.7532               356.8618

                     85                     86                     87
                      A                      A                      A
 Frequencies --   2865.8620              3002.7231              3070.8254
 Red. masses --      1.0750                 1.0307                 1.1035
 Frc consts  --      5.2018                 5.4753                 6.1310
 IR Inten    --    973.8540               213.4948                49.2736

                     88                     89                     90
                      A                      A                      A
 Frequencies --   3108.6308              3115.8505              3130.9876
 Red. masses --      1.0836                 1.1054                 1.0906
 Frc consts  --      6.1695                 6.3228                 6.2989
 IR Inten    --     32.6939                 2.4152                92.3413

                     91                     92                     93
                      A                      A                      A
 Frequencies --   3171.3487              3177.0430              3209.7328
 Red. masses --      1.0912                 1.0917                 1.0890
 Frc consts  --      6.4661                 6.4920                 6.6105
 IR Inten    --     28.5779                36.2525                13.9255

 - Thermochemistry -
 -------------------
 Temperature   298.150 Kelvin.  Pressure   1.00000 Atm.
 Atom     1 has atomic number  6 and mass  12.00000

 Molecular mass:   334.01472 amu.
 Principal axes and moments of inertia in atomic units:
                           1         2         3
     Eigenvalues --  3497.02672********************
           X            0.80264  -0.57361   0.16351
           Y            0.40920   0.72900   0.54874
           Z           -0.43396  -0.37353   0.81985
 This molecule is an asymmetric top.
 Rotational symmetry number  1.
 Warning -- assumption of classical behavior for rotation
           may cause significant error
 Rotational temperatures (Kelvin)      0.02477     0.00725     0.00579
 Rotational constants (GHZ):           0.51608     0.15096     0.12068
 Zero-point vibrational energy     591339.7 (Joules/Mol)
                                  141.33359 (Kcal/Mol)
 Warning -- explicit consideration of  32 degrees of freedom as
           vibrations may cause significant error
 Vibrational temperatures:     51.65    54.36   113.07   132.43   151.78
          (Kelvin)            172.38   198.07   207.71   217.20   254.54
                              303.03   340.57   359.70   375.86   405.56
                              429.17   491.35   524.88   551.80   562.12
                              571.54   619.34   628.29   643.31   675.90
                              692.05   713.25   730.93   775.09   787.30
                              837.55   871.15   893.23   922.14   929.52
                             1003.95  1023.72  1058.90  1060.31  1099.57
                             1125.80  1144.48  1168.78  1178.47  1267.62
                             1304.02  1364.58  1378.91  1383.63  1389.07
                             1415.76  1460.14  1465.70  1549.17  1561.23
                             1582.35  1649.10  1686.66  1691.02  1697.13
                             1710.77  1785.58  1792.58  1797.45  1845.81
                             1884.37  1891.33  1940.49  1980.12  2010.90
                             2053.75  2074.98  2091.67  2110.18  2116.07
                             2158.85  2177.20  2211.83  2232.34  2277.78
                             2318.85  2365.92  2405.51  4037.15  4123.34
                             4320.25  4418.23  4472.63  4483.01  4504.79
                             4562.86  4571.06  4618.09

 Zero-point correction=                           0.225229 (Hartree/Particle)
 Thermal correction to Energy=                    0.244275
 Thermal correction to Enthalpy=                  0.245220
 Thermal correction to Gibbs Free Energy=         0.177975
 Sum of electronic and zero-point Energies=          -1502.495511
 Sum of electronic and thermal Energies=             -1502.476465
 Sum of electronic and thermal Enthalpies=           -1502.475520
 Sum of electronic and thermal Free Energies=        -1502.542765

                     E (Thermal)             CV                S
                      KCal/Mol        Cal/Mol-Kelvin    Cal/Mol-Kelvin
 Total                  153.285             74.477            141.529
 Electronic               0.000              0.000              0.000
 Translational            0.889              2.981             43.313
 Rotational               0.889              2.981             34.790
 Vibrational            151.508             68.515             63.425
 Vibration     1          0.594              1.982              5.473
 Vibration     2          0.594              1.982              5.372
 Vibration     3          0.600              1.964              3.926
 Vibration     4          0.602              1.955              3.616
 Vibration     5          0.605              1.945              3.350
 Vibration     6          0.609              1.933              3.103
 Vibration     7          0.614              1.916              2.836
 Vibration     8          0.616              1.909              2.745
 Vibration     9          0.618              1.902              2.660
 Vibration    10          0.628              1.871              2.361
 Vibration    11          0.643              1.825              2.038
 Vibration    12          0.656              1.785              1.828
 Vibration    13          0.663              1.763              1.731
 Vibration    14          0.669              1.744              1.653
 Vibration    15          0.681              1.707              1.522
 Vibration    16          0.691              1.677              1.426
 Vibration    17          0.721              1.593              1.205
 Vibration    18          0.738              1.545              1.102
 Vibration    19          0.753              1.505              1.025
 Vibration    20          0.758              1.490              0.997
 Vibration    21          0.764              1.476              0.973
 Vibration    22          0.792              1.404              0.857
 Vibration    23          0.797              1.390              0.837
 Vibration    24          0.806              1.367              0.805
 Vibration    25          0.827              1.317              0.738
 Vibration    26          0.837              1.292              0.707
 Vibration    27          0.851              1.259              0.669
 Vibration    28          0.863              1.232              0.638
 Vibration    29          0.894              1.164              0.568
 Vibration    30          0.902              1.146              0.550
 Vibration    31          0.939              1.070              0.481
 Vibration    32          0.964              1.020              0.440

                           ! Non-Optimized Parameters !
 Normal termination of Gaussian 16 at Sun Jan  7 08:04:17 2024.
