 Q-Chem 5.4, Q-Chem, Inc., Pleasanton, CA (2021)
 Q-Chem 5.4.0 for Intel X86 EM64T Linux

User input:
--------------------------------------------------------------
$molecule
0 1
O                  2.3501490000      1.6295460000      0.3519760000
C                  1.6647440000      0.4877570000      0.2210540000
C                  2.3807230000     -0.7210530000      0.2558930000
C                  1.7156400000     -1.9273720000      0.1245650000
C                  0.3255770000     -1.9707790000     -0.0446310000
C                 -0.3960100000     -0.7871000000     -0.0811790000
C                 -1.8778450000     -0.8338030000     -0.2615200000
O                 -2.4901770000     -1.8823960000     -0.3799240000
C                 -2.5997120000      0.4626270000     -0.2931480000
C                 -1.9633330000      1.6349060000     -0.1666090000
C                 -0.4984600000      1.7118930000      0.0128610000
O                  0.0472220000      2.8180770000      0.1255000000
C                  0.2612610000      0.4602430000      0.0510120000
H                  1.7029570000      2.3722870000      0.3055450000
H                  3.4549650000     -0.6760270000      0.3870880000
H                  2.2807180000     -2.8521200000      0.1532900000
H                 -0.2007780000     -2.9108550000     -0.1479540000
H                 -3.6741690000      0.3978960000     -0.4251730000
H                 -2.4834730000      2.5862740000     -0.1886440000
$end

$rem
BASIS  =  6-311++G(d,p)
GUI  =  2
JOB_TYPE  =  SP
METHOD  =  B3LYP
SCF_CONVERGENCE  = 8
SOLVENT_METHOD = sm12
$end

$smx
solvent dimethylformamide
charges CM5
$end

--------------------------------------------------------------

             Standard Nuclear Orientation (Angstroms)
    I     Atom           X                Y                Z
 ----------------------------------------------------------------
    1      O       2.3501490000     1.6295460000     0.3519760000
    2      C       1.6647440000     0.4877570000     0.2210540000
    3      C       2.3807230000    -0.7210530000     0.2558930000
    4      C       1.7156400000    -1.9273720000     0.1245650000
    5      C       0.3255770000    -1.9707790000    -0.0446310000
    6      C      -0.3960100000    -0.7871000000    -0.0811790000
    7      C      -1.8778450000    -0.8338030000    -0.2615200000
    8      O      -2.4901770000    -1.8823960000    -0.3799240000
    9      C      -2.5997120000     0.4626270000    -0.2931480000
   10      C      -1.9633330000     1.6349060000    -0.1666090000
   11      C      -0.4984600000     1.7118930000     0.0128610000
   12      O       0.0472220000     2.8180770000     0.1255000000
   13      C       0.2612610000     0.4602430000     0.0510120000
   14      H       1.7029570000     2.3722870000     0.3055450000
   15      H       3.4549650000    -0.6760270000     0.3870880000
   16      H       2.2807180000    -2.8521200000     0.1532900000
   17      H      -0.2007780000    -2.9108550000    -0.1479540000
   18      H      -3.6741690000     0.3978960000    -0.4251730000
   19      H      -2.4834730000     2.5862740000    -0.1886440000
 ----------------------------------------------------------------

   15    -610.5164813993      3.06e-09  Convergence criterion met
 Total energy in the final basis set =     -610.5362980763

                    Orbital Energies (a.u.)
 --------------------------------------------------------------

 Alpha MOs
 -- Occupied --
-19.1672 -19.1457 -19.1352 -10.2918 -10.2845 -10.2712 -10.2139 -10.2135
-10.2129 -10.2105 -10.2045 -10.1980 -10.1970  -1.0957  -1.0676  -1.0661
 -0.8919  -0.8441  -0.7840  -0.7750  -0.7061  -0.6627  -0.6527  -0.6090
 -0.5480  -0.5435  -0.5382  -0.5099  -0.4838  -0.4687  -0.4659  -0.4643
 -0.4370  -0.4314  -0.4292  -0.4171  -0.4081  -0.3946  -0.3805  -0.3607
 -0.3123  -0.2963  -0.2871  -0.2799  -0.2545

          Ground-State Mulliken Net Atomic Charges

     Atom                 Charge (a.u.)
  ----------------------------------------
      1 O                    -0.323716
      2 C                    -0.788431
      3 C                     0.217145
      4 C                     0.387896
      5 C                    -0.130758
      6 C                     0.111143
      7 C                    -1.062597
      8 O                    -0.327221
      9 C                     0.628302
     10 C                     0.723381
     11 C                    -0.842965
     12 O                    -0.377452
     13 C                     0.016131
     14 H                     0.298868
     15 H                     0.256844
     16 H                     0.353276
     17 H                     0.183683
     18 H                     0.329768
     19 H                     0.346704
  ----------------------------------------
  Sum of atomic charges =     0.000000

                    Cartesian Multipole Moments
 -----------------------------------------------------------------
    Charge (ESU x 10^10)
                 0.0000
    Dipole Moment (Debye)
         X       0.0882      Y      -0.6406      Z      -0.0163
       Tot       0.6469
    Quadrupole Moments (Debye-Ang)
        XX     -71.2896     XY     -15.6600     YY     -79.0965
        XZ      -0.1462     YZ      -2.0379     ZZ     -75.6711

 Total job time:  216.13s(wall), 1674.91s(cpu)
        *  Thank you very much for using Q-Chem.  Have a nice day.  *
