 Gaussian 16, Revision A.03,
 Gaussian 16:  ES64L-G16RevA.03 25-Dec-2016

 ----------------------------------------------------------------------
 #P UB3LYP/6-311++G(d,p) nosym opt freq SCRF=(PCM,Solvent=n,n-DiMethylF
 ormamide)
 ----------------------------------------------------------------------

 -------
 Reduced
 -------
 Symbolic Z-matrix:
 Charge = -2 Multiplicity = 1

 SCF Done:  E(UB3LYP) =  -951.380213896     A.U. after   17 cycles
 SCF Done:  E(UB3LYP) =  -951.381203631     A.U. after   14 cycles
 SCF Done:  E(UB3LYP) =  -951.381620799     A.U. after   15 cycles
 SCF Done:  E(UB3LYP) =  -951.381666821     A.U. after   14 cycles
 SCF Done:  E(UB3LYP) =  -951.381697219     A.U. after   14 cycles
 SCF Done:  E(UB3LYP) =  -951.381698988     A.U. after   12 cycles
 SCF Done:  E(UB3LYP) =  -951.381708734     A.U. after   12 cycles
 SCF Done:  E(UB3LYP) =  -951.381709077     A.U. after    9 cycles
 SCF Done:  E(UB3LYP) =  -951.381709170     A.U. after   10 cycles
 SCF Done:  E(UB3LYP) =  -951.381709190     A.U. after    8 cycles
 Optimization completed.
    -- Stationary point found.
 Normal termination of Gaussian 16 at Sun Feb 11 16:13:03 2024.

 ----------------------------------------------------------------------
 #P Geom=AllCheck Guess=TCheck SCRF=Check GenChk UB3LYP/6-311++G(d,p) F
 req
 ----------------------------------------------------------------------

 Structure from the checkpoint file:  "301-an.chk"
 -------
 Reduced
 -------
 Charge = -2 Multiplicity = 1

                          Input orientation:
 ---------------------------------------------------------------------
 Center     Atomic      Atomic             Coordinates (Angstroms)
 Number     Number       Type             X           Y           Z
 ---------------------------------------------------------------------
      1          6           0       -0.684627    2.733081    0.648347
      2          6           0       -1.680901    2.579686   -0.299298
      3          6           0       -1.454663    1.791327   -1.444358
      4          6           0        0.578727    2.109890    0.498375
      5          6           0        0.807027    1.307712   -0.662742
      6          6           0       -0.225466    1.170149   -1.608412
      7          6           0        1.611871    2.283061    1.492615
      8          6           0        2.818257    1.639917    1.258408
      9          6           0        3.132987    0.817423    0.115383
     10          6           0        2.096813    0.619562   -0.901011
     11          8           0        1.469363    3.010579    2.586754
     12          8           0        2.247629   -0.089061   -1.930401
     13          8           0        3.767636    1.850023    2.240691
     14          1           0       -0.849985    3.337675    1.532317
     15          1           0       -2.640024    3.069282   -0.160572
     16          1           0       -2.234279    1.671258   -2.188957
     17          1           0       -0.030413    0.557806   -2.481277
     18          1           0        3.258453    2.431459    2.851841
     19          7           0        4.387160    0.296854    0.113359
     20          7           0        4.816091   -0.435197   -0.864020
     21          6           0        6.136466   -0.885329   -0.685403
     22          6           0        6.956406   -0.627235    0.436354
     23          6           0        6.674952   -1.666993   -1.728095
     24          6           0        7.970757   -2.168982   -1.658928
     25          6           0        8.772383   -1.907750   -0.543942
     26          6           0        8.250645   -1.133670    0.498096
     27          1           0        6.560159   -0.029603    1.246250
     28          1           0        6.051273   -1.869603   -2.592434
     29          1           0        8.358110   -2.767122   -2.477395
     30          1           0        9.781961   -2.298903   -0.487016
     31          1           0        8.862836   -0.924365    1.370114
 ---------------------------------------------------------------------

 SCF Done:  E(UB3LYP) =  -951.381709190     A.U. after    2 cycles

 Alpha  occ. eigenvalues --  -19.11305 -19.05748 -19.02936 -14.31693 -14.30234
 Alpha  occ. eigenvalues --  -10.21508 -10.18799 -10.18156 -10.17161 -10.16958
 Alpha  occ. eigenvalues --  -10.16824 -10.16794 -10.16318 -10.16305 -10.16108
 Alpha  occ. eigenvalues --  -10.15988 -10.15916 -10.15863 -10.15641 -10.15484
 Alpha  occ. eigenvalues --  -10.15441  -1.02598  -0.98841  -0.97086  -0.92695
 Alpha  occ. eigenvalues --   -0.84937  -0.84057  -0.79672  -0.75902  -0.73855
 Alpha  occ. eigenvalues --   -0.73499  -0.71738  -0.67154  -0.64216  -0.60590
 Alpha  occ. eigenvalues --   -0.59525  -0.58428  -0.56153  -0.54425  -0.51417
 Alpha  occ. eigenvalues --   -0.50819  -0.48199  -0.46052  -0.45679  -0.44733
 Alpha  occ. eigenvalues --   -0.43657  -0.42662  -0.41937  -0.41292  -0.41278
 Alpha  occ. eigenvalues --   -0.41139  -0.38904  -0.38535  -0.37058  -0.36667
 Alpha  occ. eigenvalues --   -0.36149  -0.35718  -0.35289  -0.33812  -0.33411
 Alpha  occ. eigenvalues --   -0.33005  -0.32329  -0.31778  -0.30052  -0.25982
 Alpha  occ. eigenvalues --   -0.25062  -0.24173  -0.24046  -0.23519  -0.21694
 Alpha  occ. eigenvalues --   -0.19511  -0.18183  -0.12790
 Alpha virt. eigenvalues --   -0.06002  -0.01123  -0.00647  -0.00030   0.00381
 Alpha virt. eigenvalues --    0.01139   0.01174   0.01750   0.02134   0.03235
 Alpha virt. eigenvalues --    0.03460   0.03649   0.04404   0.05079   0.05296

  Beta  occ. eigenvalues --  -19.11305 -19.05748 -19.02936 -14.31693 -14.30234
  Beta  occ. eigenvalues --  -10.21508 -10.18799 -10.18156 -10.17161 -10.16958
  Beta  occ. eigenvalues --  -10.16824 -10.16794 -10.16318 -10.16305 -10.16108
  Beta  occ. eigenvalues --  -10.15988 -10.15916 -10.15863 -10.15641 -10.15484
  Beta  occ. eigenvalues --  -10.15441  -1.02598  -0.98841  -0.97086  -0.92695
  Beta  occ. eigenvalues --   -0.84937  -0.84057  -0.79672  -0.75902  -0.73855
  Beta  occ. eigenvalues --   -0.73499  -0.71738  -0.67154  -0.64216  -0.60590
  Beta  occ. eigenvalues --   -0.59525  -0.58428  -0.56153  -0.54425  -0.51417
  Beta  occ. eigenvalues --   -0.50819  -0.48199  -0.46052  -0.45679  -0.44733
  Beta  occ. eigenvalues --   -0.43657  -0.42662  -0.41937  -0.41292  -0.41278
  Beta  occ. eigenvalues --   -0.41139  -0.38904  -0.38535  -0.37058  -0.36667
  Beta  occ. eigenvalues --   -0.36149  -0.35718  -0.35289  -0.33812  -0.33411
  Beta  occ. eigenvalues --   -0.33005  -0.32329  -0.31778  -0.30052  -0.25982
  Beta  occ. eigenvalues --   -0.25062  -0.24173  -0.24046  -0.23519  -0.21694
  Beta  occ. eigenvalues --   -0.19511  -0.18183  -0.12790
  Beta virt. eigenvalues --   -0.06002  -0.01123  -0.00647  -0.00030   0.00381
  Beta virt. eigenvalues --    0.01139   0.01174   0.01750   0.02134   0.03235
  Beta virt. eigenvalues --    0.03460   0.03649   0.04404   0.05079   0.05296

 Mulliken charges and spin densities:
               1          2
     1  C   -0.039664  -0.000000
     2  C   -0.288493   0.000000
     3  C   -0.471753   0.000000
     4  C    0.736506   0.000000
     5  C    0.233981   0.000000
     6  C    0.005705  -0.000000
     7  C   -0.659650  -0.000000
     8  C   -0.084140   0.000000
     9  C    0.184349   0.000000
    10  C   -0.545930  -0.000000
    11  O   -0.723105  -0.000000
    12  O   -0.462909   0.000000
    13  O   -0.344627  -0.000000
    14  H    0.153693   0.000000
    15  H    0.170681   0.000000
    16  H    0.165342   0.000000
    17  H    0.156196  -0.000000
    18  H    0.290325   0.000000
    19  N   -0.219852   0.000000
    20  N   -0.014891   0.000000
    21  C   -0.238581  -0.000000
    22  C    0.136288   0.000000
    23  C   -0.144341   0.000000
    24  C   -0.150709  -0.000000
    25  C   -0.344890   0.000000
    26  C   -0.373073  -0.000000
    27  H    0.169594   0.000000
    28  H    0.161485   0.000000
    29  H    0.188949  -0.000000
    30  H    0.158984   0.000000
    31  H    0.194529  -0.000000
 Sum of Mulliken charges =  -2.00000   0.00000

 Dipole moment (field-independent basis, Debye):
    X=            -26.9804    Y=            -10.4968    Z=             -3.3009  Tot=             29.1380
 Quadrupole moment (field-independent basis, Debye-Ang):
   XX=           -236.0993   YY=           -165.5516   ZZ=           -162.6146
   XY=            -12.8626   XZ=              0.7654   YZ=            -24.9103

  Exact polarizability: 855.114-264.157 329.737  28.301  79.824 329.595
 Approx polarizability: 893.408-263.923 359.676  40.185  96.007 386.531

                      1                      2                      3
                      A                      A                      A
 Frequencies --     31.4231                36.5597                69.3128
 Red. masses --      6.0954                 4.3357                 6.1787
 Frc consts  --      0.0035                 0.0034                 0.0175
 IR Inten    --      7.1453                 0.0757                 5.7476

                      4                      5                      6
                      A                      A                      A
 Frequencies --     89.3911               101.9616               146.9336
 Red. masses --      8.3318                 5.6929                 5.4910
 Frc consts  --      0.0392                 0.0349                 0.0698
 IR Inten    --      4.9519                 1.2545                 0.7646

                      7                      8                      9
                      A                      A                      A
 Frequencies --    161.6225               184.1700               228.2130
 Red. masses --      8.2031                 6.4556                 8.9560
 Frc consts  --      0.1262                 0.1290                 0.2748
 IR Inten    --      2.3597                 5.0053                 4.5961

                     10                     11                     12
                      A                      A                      A
 Frequencies --    242.5804               255.5776               273.4035
 Red. masses --      6.4616                 6.1604                 6.4355
 Frc consts  --      0.2240                 0.2371                 0.2834
 IR Inten    --     23.9926                 0.6357                19.0181

                     13                     14                     15
                      A                      A                      A
 Frequencies --    331.3355               339.5966               374.0304
 Red. masses --      6.2561                 6.0243                10.2152
 Frc consts  --      0.4047                 0.4093                 0.8420
 IR Inten    --     10.5690                 1.1061                21.5518

                     16                     17                     18
                      A                      A                      A
 Frequencies --    413.8822               424.5444               426.3923
 Red. masses --      6.2042                 3.7269                 6.5623
 Frc consts  --      0.6262                 0.3958                 0.7029
 IR Inten    --      4.0190                38.7342               120.3587

                     19                     20                     21
                      A                      A                      A
 Frequencies --    452.7935               457.4051               476.2194
 Red. masses --      3.7008                10.1228                 8.1000
 Frc consts  --      0.4470                 1.2478                 1.0823
 IR Inten    --     10.6437                22.7614                17.6457

                     22                     23                     24
                      A                      A                      A
 Frequencies --    518.7183               520.2630               555.5814
 Red. masses --      3.2820                 9.4107                 3.8654
 Frc consts  --      0.5203                 1.5008                 0.7030
 IR Inten    --      7.9992                39.0538                 1.4691

                     25                     26                     27
                      A                      A                      A
 Frequencies --    598.2537               628.1270               659.2478
 Red. masses --      8.1822                 6.4733                 7.0236
 Frc consts  --      1.7254                 1.5048                 1.7985
 IR Inten    --     41.3851                 6.9235                 0.2943

                     28                     29                     30
                      A                      A                      A
 Frequencies --    673.2017               687.5144               699.5273
 Red. masses --      2.1281                 1.9789                 7.1009
 Frc consts  --      0.5682                 0.5511                 2.0473
 IR Inten    --    106.7100                19.7901                66.9254

                     31                     32                     33
                      A                      A                      A
 Frequencies --    702.4133               716.9244               734.5431
 Red. masses --      1.8809                 2.4277                 6.8400
 Frc consts  --      0.5468                 0.7352                 2.1744
 IR Inten    --     28.8083               161.2098                10.0376

                     34                     35                     36
                      A                      A                      A
 Frequencies --    756.7090               771.4283               795.2569
 Red. masses --      2.1639                 1.9535                 3.4525
 Frc consts  --      0.7300                 0.6850                 1.2865
 IR Inten    --     55.5751                40.8079                14.3712

                     37                     38                     39
                      A                      A                      A
 Frequencies --    843.2555               852.8641               866.6293
 Red. masses --      1.2529                 6.8405                 1.4133
 Frc consts  --      0.5249                 2.9316                 0.6254
 IR Inten    --      0.0489                15.6738                 1.2036

                     40                     41                     42
                      A                      A                      A
 Frequencies --    908.5410               919.6845               973.7128
 Red. masses --      1.5061                 6.6017                 1.3624
 Frc consts  --      0.7325                 3.2899                 0.7610
 IR Inten    --     13.7899               157.2791                 3.2833

                     43                     44                     45
                      A                      A                      A
 Frequencies --    981.0519               984.4053               988.1837
 Red. masses --      1.3262                 1.2573                 6.7812
 Frc consts  --      0.7520                 0.7179                 3.9015
 IR Inten    --      0.0597                 0.4486               836.1831

                     46                     47                     48
                      A                      A                      A
 Frequencies --    988.7797              1000.7848              1033.9202
 Red. masses --      1.2708                 6.6412                 2.2909
 Frc consts  --      0.7320                 3.9190                 1.4429
 IR Inten    --      1.7696                55.4620                52.3004

                     49                     50                     51
                      A                      A                      A
 Frequencies --   1040.7883              1045.6361              1093.2995
 Red. masses --      2.0853                 5.3404                 1.5527
 Frc consts  --      1.3309                 3.4402                 1.0935
 IR Inten    --     53.2223               329.3509                35.5433

                     52                     53                     54
                      A                      A                      A
 Frequencies --   1097.4373              1128.6351              1153.2651
 Red. masses --      2.5167                 2.2976                 1.7936
 Frc consts  --      1.7858                 1.7244                 1.4055
 IR Inten    --    154.9354              2070.5994              1112.5507

                     55                     56                     57
                      A                      A                      A
 Frequencies --   1166.1848              1169.4546              1187.0443
 Red. masses --      1.1234                 1.7829                 1.5553
 Frc consts  --      0.9002                 1.4366                 1.2912
 IR Inten    --      3.1219                 4.0489               442.2867

                     58                     59                     60
                      A                      A                      A
 Frequencies --   1214.4978              1254.3772              1293.2033
 Red. masses --      2.3687                 2.4031                 3.0731
 Frc consts  --      2.0585                 2.2278                 3.0281
 IR Inten    --    639.6173               370.2028              2242.3294

                     61                     62                     63
                      A                      A                      A
 Frequencies --   1312.4686              1321.6857              1343.8828
 Red. masses --      3.9335                 2.1961                 2.6917
 Frc consts  --      3.9921                 2.2602                 2.8641
 IR Inten    --   1130.8325                53.7311                 4.8219

                     64                     65                     66
                      A                      A                      A
 Frequencies --   1351.7656              1354.8370              1394.2534
 Red. masses --      6.9094                 4.0915                 4.6411
 Frc consts  --      7.4386                 4.4249                 5.3156
 IR Inten    --    582.6118               478.5564               667.1820

                     67                     68                     69
                      A                      A                      A
 Frequencies --   1432.2492              1455.2406              1475.9160
 Red. masses --      4.0560                 2.3493                 2.3522
 Frc consts  --      4.9021                 2.9313                 3.0189
 IR Inten    --    169.9540                25.0125                63.3885

                     70                     71                     72
                      A                      A                      A
 Frequencies --   1483.6332              1503.7765              1538.4896
 Red. masses --      3.1635                 2.2176                 6.1345
 Frc consts  --      4.1027                 2.9546                 8.5550
 IR Inten    --    574.3668                37.2502               140.6450

                     73                     74                     75
                      A                      A                      A
 Frequencies --   1545.1405              1593.8093              1598.9563
 Red. masses --      4.8487                 5.5546                 5.8600
 Frc consts  --      6.8205                 8.3134                 8.8271
 IR Inten    --    729.2686                22.9031               180.1234

                     76                     77                     78
                      A                      A                      A
 Frequencies --   1619.8094              1628.7608              3148.0067
 Red. masses --      5.7110                 6.3061                 1.0857
 Frc consts  --      8.8286                 9.8565                 6.3389
 IR Inten    --    304.4413                76.9083                16.7869

                     79                     80                     81
                      A                      A                      A
 Frequencies --   3149.5154              3156.0195              3164.5597
 Red. masses --      1.0859                 1.0879                 1.0892
 Frc consts  --      6.3466                 6.3846                 6.4267
 IR Inten    --     45.8184                16.3746                26.5823

                     82                     83                     84
                      A                      A                      A
 Frequencies --   3170.7037              3179.2229              3181.3719
 Red. masses --      1.0915                 1.0914                 1.0967
 Frc consts  --      6.4650                 6.4995                 6.5397
 IR Inten    --     35.9808                29.5716                77.2557

                     85                     86                     87
                      A                      A                      A
 Frequencies --   3183.2011              3211.8876              3427.6829
 Red. masses --      1.0945                 1.0895                 1.0639
 Frc consts  --      6.5340                 6.6224                 7.3644
 IR Inten    --     76.1336                 5.9734               148.8583

 - Thermochemistry -
 -------------------
 Temperature   298.150 Kelvin.  Pressure   1.00000 Atm.
 Atom     1 has atomic number  6 and mass  12.00000

 Molecular mass:   278.06914 amu.
 Principal axes and moments of inertia in atomic units:
                           1         2         3
     Eigenvalues --  2260.60390********************
           X            0.90290   0.26972   0.33471
           Y           -0.42205   0.40856   0.80929
           Z           -0.08153   0.87197  -0.48272
 This molecule is an asymmetric top.
 Rotational symmetry number  1.
 Warning -- assumption of classical behavior for rotation
           may cause significant error
 Rotational temperatures (Kelvin)      0.03831     0.00725     0.00610
 Rotational constants (GHZ):           0.79834     0.15116     0.12711
 Zero-point vibrational energy     584062.0 (Joules/Mol)
                                  139.59417 (Kcal/Mol)
 Warning -- explicit consideration of  25 degrees of freedom as
           vibrations may cause significant error
 Vibrational temperatures:     45.21    52.60    99.73   128.61   146.70
          (Kelvin)            211.40   232.54   264.98   328.35   349.02
                              367.72   393.37   476.72   488.60   538.15
                              595.48   610.82   613.48   651.47   658.10
                              685.17   746.32   748.54   799.36   860.75
                              903.73   948.51   968.59   989.18  1006.46
                             1010.62  1031.49  1056.84  1088.74  1109.91
                             1144.20  1213.26  1227.08  1246.89  1307.19
                             1323.22  1400.96  1411.51  1416.34  1421.78
                             1422.63  1439.91  1487.58  1497.46  1504.44
                             1573.01  1578.97  1623.85  1659.29  1677.88
                             1682.58  1707.89  1747.39  1804.77  1860.63
                             1888.35  1901.61  1933.55  1944.89  1949.31
                             2006.02  2060.69  2093.77  2123.51  2134.62
                             2163.60  2213.54  2223.11  2293.14  2300.54
                             2330.54  2343.42  4529.28  4531.45  4540.81
                             4553.10  4561.94  4574.19  4577.28  4579.92
                             4621.19  4931.67

 Zero-point correction=                           0.222457 (Hartree/Particle)
 Thermal correction to Energy=                    0.238724
 Thermal correction to Enthalpy=                  0.239668
 Thermal correction to Gibbs Free Energy=         0.177779
 Sum of electronic and zero-point Energies=           -951.159252
 Sum of electronic and thermal Energies=              -951.142985
 Sum of electronic and thermal Enthalpies=            -951.142041
 Sum of electronic and thermal Free Energies=         -951.203930

                     E (Thermal)             CV                S
                      KCal/Mol        Cal/Mol-Kelvin    Cal/Mol-Kelvin
 Total                  149.802             64.787            130.257
 Electronic               0.000              0.000              0.000
 Translational            0.889              2.981             42.766
 Rotational               0.889              2.981             34.304
 Vibrational            148.024             58.826             53.186
 Vibration     1          0.594              1.983              5.737
 Vibration     2          0.594              1.982              5.437
 Vibration     3          0.598              1.969              4.173
 Vibration     4          0.602              1.957              3.673
 Vibration     5          0.604              1.948              3.416
 Vibration     6          0.617              1.906              2.712
 Vibration     7          0.622              1.889              2.531
 Vibration     8          0.631              1.861              2.286
 Vibration     9          0.651              1.798              1.893
 Vibration    10          0.659              1.775              1.784
 Vibration    11          0.666              1.753              1.692
 Vibration    12          0.676              1.722              1.575
 Vibration    13          0.714              1.613              1.254
 Vibration    14          0.720              1.596              1.214
 Vibration    15          0.745              1.525              1.063
 Vibration    16          0.777              1.440              0.913
 Vibration    17          0.787              1.417              0.877
 Vibration    18          0.788              1.413              0.871
 Vibration    19          0.811              1.355              0.787
 Vibration    20          0.816              1.345              0.774
 Vibration    21          0.833              1.303              0.720
 Vibration    22          0.874              1.209              0.613
 Vibration    23          0.875              1.205              0.609
 Vibration    24          0.911              1.127              0.533
 Vibration    25          0.956              1.036              0.453

 Optimization completed.
    -- Stationary point found.
 Normal termination of Gaussian 16 at Sun Feb 11 18:29:30 2024.
