 Q-Chem 5.4, Q-Chem, Inc., Pleasanton, CA (2021)
 Q-Chem 5.4.0 for Intel X86 EM64T Linux

User input:
--------------------------------------------------------------
$molecule
-1 2
C                  1.6646040000      1.0521620000     -0.8332310000
C                  0.4330850000      1.5668520000     -0.2505570000
C                 -0.5338690000      0.7273010000      0.2630200000
C                 -0.3663820000     -0.7193840000      0.2735810000
C                  0.8692750000     -1.2313240000     -0.3023850000
C                  1.8261960000     -0.3950840000     -0.8291210000
O                  2.5489630000      1.8092960000     -1.3316120000
O                 -1.2335850000     -1.5003570000      0.7652960000
O                  2.9350270000     -0.9496980000     -1.4340990000
C                  4.1820860000     -0.6452100000     -0.8168210000
C                  0.2540570000      3.0650240000     -0.2498540000
C                 -1.8103180000      1.2694600000      0.8574460000
H                  4.3529010000      0.4333860000     -0.7972260000
H                  4.9505610000     -1.1338450000     -1.4210250000
H                  4.2165150000     -1.0536260000      0.2023880000
O                  1.1227190000     -2.5865380000     -0.2547890000
C                  0.2372910000     -3.3992660000     -1.0192670000
H                 -0.7945280000     -3.2705740000     -0.6850440000
H                  0.5551540000     -4.4326700000     -0.8598310000
H                  0.3226160000     -3.1607550000     -2.0881980000
H                  1.1307880000      3.5336530000     -0.6980410000
H                  0.1247990000      3.4581630000      0.7666840000
H                 -0.6339220000      3.3686430000     -0.8191560000
H                 -1.6124200000      1.9345090000      1.7079220000
H                 -2.4290460000      0.4401140000      1.2016770000
H                 -2.3816470000      1.8560290000      0.1265740000
$end
$rem
MAX_SCF_CYCLES=200
BASIS  =  6-311++G(d,p)
GUI  =  2
JOB_TYPE  =  SP
METHOD  =  B3LYP
SOLVENT_METHOD = PCM
$end
$pcm
theory = CPCM
$end
$solvent
dielectric 37.219
opticaldielectric 1.43
$end

--------------------------------------------------------------

             Standard Nuclear Orientation (Angstroms)
    I     Atom           X                Y                Z
 ----------------------------------------------------------------
    1      C       1.6646040000     1.0521620000    -0.8332310000
    2      C       0.4330850000     1.5668520000    -0.2505570000
    3      C      -0.5338690000     0.7273010000     0.2630200000
    4      C      -0.3663820000    -0.7193840000     0.2735810000
    5      C       0.8692750000    -1.2313240000    -0.3023850000
    6      C       1.8261960000    -0.3950840000    -0.8291210000
    7      O       2.5489630000     1.8092960000    -1.3316120000
    8      O      -1.2335850000    -1.5003570000     0.7652960000
    9      O       2.9350270000    -0.9496980000    -1.4340990000
   10      C       4.1820860000    -0.6452100000    -0.8168210000
   11      C       0.2540570000     3.0650240000    -0.2498540000
   12      C      -1.8103180000     1.2694600000     0.8574460000
   13      H       4.3529010000     0.4333860000    -0.7972260000
   14      H       4.9505610000    -1.1338450000    -1.4210250000
   15      H       4.2165150000    -1.0536260000     0.2023880000
   16      O       1.1227190000    -2.5865380000    -0.2547890000
   17      C       0.2372910000    -3.3992660000    -1.0192670000
   18      H      -0.7945280000    -3.2705740000    -0.6850440000
   19      H       0.5551540000    -4.4326700000    -0.8598310000
   20      H       0.3226160000    -3.1607550000    -2.0881980000
   21      H       1.1307880000     3.5336530000    -0.6980410000
   22      H       0.1247990000     3.4581630000     0.7666840000
   23      H      -0.6339220000     3.3686430000    -0.8191560000
   24      H      -1.6124200000     1.9345090000     1.7079220000
   25      H      -2.4290460000     0.4401140000     1.2016770000
   26      H      -2.3816470000     1.8560290000     0.1265740000
 ----------------------------------------------------------------

    8    -689.4837367403      6.57e-06  Convergence criterion met
 Total energy in the final basis set =     -689.4837367403

                    Orbital Energies (a.u.)
 --------------------------------------------------------------

 Alpha MOs
 -- Occupied --
-19.1351 -19.1351 -19.0756 -19.0756 -10.2194 -10.2194 -10.2130 -10.2124
-10.2028 -10.2028 -10.1653 -10.1647 -10.1503 -10.1503  -1.0599  -1.0410
 -0.9957  -0.9933  -0.8260  -0.7707  -0.7224  -0.7017  -0.6916  -0.6446
 -0.6370  -0.5626  -0.5584  -0.5147  -0.4940  -0.4837  -0.4664  -0.4435
 -0.4379  -0.4378  -0.4261  -0.4167  -0.4092  -0.3933  -0.3862  -0.3818
 -0.3797  -0.3638  -0.3602  -0.3523  -0.3445  -0.3417  -0.2899  -0.2857
 -0.2646  -0.2391  -0.2363  -0.2229  -0.1581

 Beta MOs
 -- Occupied --
-19.1350 -19.1350 -19.0693 -19.0693 -10.2175 -10.2175 -10.2120 -10.2114
-10.2027 -10.2027 -10.1643 -10.1637 -10.1504 -10.1504  -1.0589  -1.0399
 -0.9847  -0.9823  -0.8208  -0.7689  -0.7187  -0.7003  -0.6899  -0.6369
 -0.6360  -0.5596  -0.5549  -0.5133  -0.4918  -0.4820  -0.4628  -0.4420
 -0.4364  -0.4349  -0.4220  -0.4147  -0.4027  -0.3881  -0.3848  -0.3806
 -0.3680  -0.3569  -0.3519  -0.3433  -0.3390  -0.3371  -0.2870  -0.2822
 -0.2380  -0.2341  -0.2306  -0.2168

          Ground-State Mulliken Net Atomic Charges

     Atom                 Charge (a.u.)    Spin (a.u.)
  --------------------------------------------------------
      1 C                    -0.693111       0.100015
      2 C                     0.688370       0.080836
      3 C                     0.688528       0.080781
      4 C                    -0.693758       0.100083
      5 C                    -0.025030       0.078926
      6 C                    -0.019809       0.078653
      7 O                    -0.512269       0.235536
      8 O                    -0.512273       0.235596
      9 O                    -0.210795       0.000477
     10 C                    -0.289010       0.002062
     11 C                    -0.442765      -0.004004
     12 C                    -0.441136      -0.004080
     13 H                     0.170085      -0.000323
     14 H                     0.168190       0.000622
     15 H                     0.145635       0.000654
     16 O                    -0.210724       0.000476
     17 C                    -0.288783       0.002063
     18 H                     0.170291      -0.000321
     19 H                     0.167918       0.000618
     20 H                     0.145613       0.000637
     21 H                     0.180701      -0.001517
     22 H                     0.156934       0.003201
     23 H                     0.159658       0.003656
     24 H                     0.159636       0.003657
     25 H                     0.180715      -0.001511
     26 H                     0.157189       0.003209
  --------------------------------------------------------
  Sum of atomic charges =    -1.000000

                    Cartesian Multipole Moments
 -----------------------------------------------------------------
    Charge (ESU x 10^10)
                -4.8032
    Dipole Moment (Debye)
         X      -4.4286      Y       1.0352      Z       1.8783
       Tot       4.9206
    Quadrupole Moments (Debye-Ang)
        XX    -103.7267     XY     -11.9526     YY     -99.7219
        XZ      14.8178     YZ      11.2137     ZZ     -95.4938

 Total job time:  43.77s(wall), 279.94s(cpu)
        *  Thank you very much for using Q-Chem.  Have a nice day.  *
