 Gaussian 16, Revision A.03,
 Gaussian 16:  ES64L-G16RevA.03 25-Dec-2016

 ----------------------------------------------------------------------
 #P UB3LYP/6-311++G(d,p) nosym opt freq SCRF=(PCM,Solvent=n,n-DiMethylF
 ormamide)
 ----------------------------------------------------------------------

 -------
 Radical
 -------
 Symbolic Z-matrix:
 Charge = -1 Multiplicity = 2

 SCF Done:  E(UB3LYP) =  -689.320768256     A.U. after   20 cycles
 SCF Done:  E(UB3LYP) =  -689.320989480     A.U. after   15 cycles
 SCF Done:  E(UB3LYP) =  -689.321021639     A.U. after   13 cycles
 SCF Done:  E(UB3LYP) =  -689.321027348     A.U. after   13 cycles
 SCF Done:  E(UB3LYP) =  -689.321031366     A.U. after   13 cycles
 SCF Done:  E(UB3LYP) =  -689.321034672     A.U. after   13 cycles
 SCF Done:  E(UB3LYP) =  -689.321036202     A.U. after   13 cycles
 SCF Done:  E(UB3LYP) =  -689.321037962     A.U. after   12 cycles
 SCF Done:  E(UB3LYP) =  -689.321039133     A.U. after   12 cycles
 SCF Done:  E(UB3LYP) =  -689.321039216     A.U. after    9 cycles
 Optimization completed.
    -- Stationary point found.
 Normal termination of Gaussian 16 at Sun Feb 11 01:51:26 2024.

 ----------------------------------------------------------------------
 #P Geom=AllCheck Guess=TCheck SCRF=Check GenChk UB3LYP/6-311++G(d,p) F
 req
 ----------------------------------------------------------------------

 Structure from the checkpoint file:  "282-rad.chk"
 -------
 Radical
 -------
 Charge = -1 Multiplicity = 2

                          Input orientation:
 ---------------------------------------------------------------------
 Center     Atomic      Atomic             Coordinates (Angstroms)
 Number     Number       Type             X           Y           Z
 ---------------------------------------------------------------------
      1          6           0       -1.827231    3.152046    0.234942
      2          6           0       -2.965982    2.447239   -0.111600
      3          6           0       -2.871440    1.087196   -0.463183
      4          6           0       -0.561943    2.525898    0.241869
      5          6           0       -0.463209    1.151019   -0.114596
      6          6           0       -1.637181    0.457176   -0.462465
      7          6           0        0.631033    3.262370    0.606293
      8          6           0        1.878365    2.540336    0.579782
      9          6           0        2.011313    1.207425    0.242936
     10          6           0        0.837727    0.451037   -0.124651
     11          8           0        0.652751    4.494320    0.946352
     12          8           0        0.905253   -0.771900   -0.442678
     13          1           0       -1.885421    4.199260    0.507638
     14          1           0       -3.931705    2.941261   -0.112830
     15          1           0       -3.764204    0.534370   -0.734688
     16          1           0       -1.550348   -0.588631   -0.731760
     17          6           0        3.362405    0.535837    0.236567
     18          8           0        2.963400    3.290334    0.930134
     19          6           0        4.099608    0.656658   -1.110721
     20          1           0        3.222191   -0.522162    0.470368
     21          1           0        3.987117    0.968046    1.023360
     22          1           0        2.575559    4.169695    1.121902
     23          1           0        3.514855    0.207813   -1.917998
     24          1           0        5.067805    0.147531   -1.072045
     25          1           0        4.280126    1.704075   -1.367488
 ---------------------------------------------------------------------

 SCF Done:  E(UB3LYP) =  -689.321039216     A.U. after    1 cycles

 Alpha  occ. eigenvalues --  -19.14359 -19.08436 -19.07243 -10.22244 -10.22107
 Alpha  occ. eigenvalues --  -10.22009 -10.17460 -10.17267 -10.17244 -10.17128
 Alpha  occ. eigenvalues --  -10.17090 -10.16956 -10.16221 -10.16020 -10.15309
 Alpha  occ. eigenvalues --   -1.06257  -0.99522  -0.99327  -0.85818  -0.80993
 Alpha  occ. eigenvalues --   -0.76640  -0.75029  -0.72127  -0.67294  -0.63361
 Alpha  occ. eigenvalues --   -0.61517  -0.58319  -0.56955  -0.53590  -0.50469
 Alpha  occ. eigenvalues --   -0.48250  -0.46108  -0.45362  -0.43819  -0.42730
 Alpha  occ. eigenvalues --   -0.42658  -0.41577  -0.41198  -0.39456  -0.38723
 Alpha  occ. eigenvalues --   -0.38030  -0.37748  -0.36171  -0.35382  -0.34429
 Alpha  occ. eigenvalues --   -0.34141  -0.33134  -0.33064  -0.26662  -0.25788
 Alpha  occ. eigenvalues --   -0.25716  -0.23843  -0.22809  -0.15104
 Alpha virt. eigenvalues --   -0.03295  -0.00970  -0.00413   0.00562   0.01178
 Alpha virt. eigenvalues --    0.02054   0.02459   0.02738   0.04297   0.04729
 Alpha virt. eigenvalues --    0.04925   0.05285   0.05554   0.05786   0.06580

  Beta  occ. eigenvalues --  -19.14310 -19.07800 -19.06701 -10.22110 -10.22003
  Beta  occ. eigenvalues --  -10.21725 -10.17445 -10.17240 -10.17158 -10.17051
  Beta  occ. eigenvalues --  -10.17040 -10.16975 -10.16143 -10.16027 -10.15300
  Beta  occ. eigenvalues --   -1.06048  -0.98571  -0.98240  -0.85585  -0.80657
  Beta  occ. eigenvalues --   -0.76411  -0.74819  -0.71978  -0.66435  -0.63193
  Beta  occ. eigenvalues --   -0.61311  -0.58131  -0.56703  -0.53417  -0.50239
  Beta  occ. eigenvalues --   -0.47967  -0.45955  -0.45245  -0.43286  -0.42590
  Beta  occ. eigenvalues --   -0.42149  -0.41222  -0.40652  -0.39144  -0.37839
  Beta  occ. eigenvalues --   -0.37605  -0.37347  -0.35904  -0.34360  -0.34030
  Beta  occ. eigenvalues --   -0.33208  -0.32956  -0.32449  -0.25223  -0.25016
  Beta  occ. eigenvalues --   -0.24661  -0.23328  -0.21867
  Beta virt. eigenvalues --   -0.08543  -0.02548  -0.00538   0.00134   0.00672
  Beta virt. eigenvalues --    0.01223   0.02082   0.02478   0.02752   0.04365
  Beta virt. eigenvalues --    0.04784   0.05285   0.05336   0.05598   0.06580

 Mulliken charges and spin densities:
               1          2
     1  C    0.045283   0.074456
     2  C   -0.399480  -0.000494
     3  C   -0.430343   0.068210
     4  C    0.222107  -0.015749
     5  C    0.496151   0.076398
     6  C    0.087088  -0.000539
     7  C   -0.740996   0.178609
     8  C   -0.692642   0.055653
     9  C    1.583084   0.040225
    10  C   -0.848135   0.077235
    11  O   -0.528554   0.232225
    12  O   -0.469646   0.199221
    13  H    0.173544  -0.003665
    14  H    0.177801  -0.000536
    15  H    0.177539  -0.004976
    16  H    0.169653  -0.000130
    17  C   -0.199251   0.002924
    18  O   -0.285350   0.016516
    19  C   -0.617778   0.003803
    20  H    0.173131   0.001044
    21  H    0.173511   0.000448
    22  H    0.290841  -0.003077
    23  H    0.157692  -0.000825
    24  H    0.132000   0.002144
    25  H    0.152747   0.000881
 Sum of Mulliken charges =  -1.00000   1.00000

 Dipole moment (field-independent basis, Debye):
    X=             -4.6045    Y=             -8.2737    Z=             -1.1094  Tot=              9.5334
 Quadrupole moment (field-independent basis, Debye-Ang):
   XX=            -97.4879   YY=           -135.4815   ZZ=            -96.3511
   XY=             -7.0463   XZ=             -0.2751   YZ=             -9.2123

  Exact polarizability: 312.961  -6.755 295.169  18.702  46.712 142.395
 Approx polarizability: 327.966  -1.193 350.852  23.633  57.007 160.552

                      1                      2                      3
                      A                      A                      A
 Frequencies --     46.1077                69.7024                99.3418
 Red. masses --      2.8737                 4.2914                 5.9411
 Frc consts  --      0.0036                 0.0123                 0.0345
 IR Inten    --      3.0329                 8.2406                 2.8962

                      4                      5                      6
                      A                      A                      A
 Frequencies --    139.9051               166.4883               200.1518
 Red. masses --      4.8158                 6.7497                 1.1635
 Frc consts  --      0.0555                 0.1102                 0.0275
 IR Inten    --      0.7915                 2.1854                 1.8869

                      7                      8                      9
                      A                      A                      A
 Frequencies --    215.8492               256.3220               312.8788
 Red. masses --      4.6846                 4.1622                 2.2464
 Frc consts  --      0.1286                 0.1611                 0.1296
 IR Inten    --      0.4126                 3.6033                 7.6383

                     10                     11                     12
                      A                      A                      A
 Frequencies --    322.3957               357.8652               376.1290
 Red. masses --      5.2473                 5.3710                 9.2319
 Frc consts  --      0.3213                 0.4053                 0.7695
 IR Inten    --     14.5086                19.2055                23.1294

                     13                     14                     15
                      A                      A                      A
 Frequencies --    415.0317               430.6926               444.1789
 Red. masses --      6.0609                 8.9669                 4.2844
 Frc consts  --      0.6151                 0.9800                 0.4980
 IR Inten    --      7.1081                 3.7483                 3.8654

                     16                     17                     18
                      A                      A                      A
 Frequencies --    473.0925               520.0973               570.5259
 Red. masses --      4.3400                 8.4231                 5.0709
 Frc consts  --      0.5723                 1.3424                 0.9725
 IR Inten    --      5.0839                 0.7133                 2.4282

                     19                     20                     21
                      A                      A                      A
 Frequencies --    620.7570               657.5095               669.3461
 Red. masses --      5.6141                 1.1255                 6.1005
 Frc consts  --      1.2746                 0.2867                 1.6103
 IR Inten    --     22.2597               132.5209                10.2190

                     22                     23                     24
                      A                      A                      A
 Frequencies --    697.0760               705.5115               708.9116
 Red. masses --      3.4875                 3.2035                 5.0742
 Frc consts  --      0.9984                 0.9395                 1.5024
 IR Inten    --      3.1241                83.7599                16.1044

                     25                     26                     27
                      A                      A                      A
 Frequencies --    759.1493               770.0839               786.9592
 Red. masses --      3.5572                 1.5404                 2.0332
 Frc consts  --      1.2078                 0.5382                 0.7419
 IR Inten    --     23.4497                 1.3283                30.4647

                     28                     29                     30
                      A                      A                      A
 Frequencies --    877.9905               879.6347               893.4939
 Red. masses --      3.0335                 1.4185                 3.3424
 Frc consts  --      1.3778                 0.6467                 1.5721
 IR Inten    --     59.6017                 2.6296                50.8938

                     31                     32                     33
                      A                      A                      A
 Frequencies --    980.1311               980.7972               996.0819
 Red. masses --      1.3748                 3.4775                 1.2824
 Frc consts  --      0.7781                 1.9710                 0.7497
 IR Inten    --      2.7508                42.5403                 0.0092

                     34                     35                     36
                      A                      A                      A
 Frequencies --   1036.1921              1039.0598              1072.4794
 Red. masses --      3.0911                 1.9981                 1.8560
 Frc consts  --      1.9554                 1.2710                 1.2578
 IR Inten    --     48.9489                14.7344                14.1538

                     37                     38                     39
                      A                      A                      A
 Frequencies --   1109.4797              1110.6991              1152.3657
 Red. masses --      2.0757                 2.1084                 1.3398
 Frc consts  --      1.5054                 1.5325                 1.0483
 IR Inten    --     32.6204               185.8685                 3.0660

                     40                     41                     42
                      A                      A                      A
 Frequencies --   1193.2698              1201.3598              1248.2939
 Red. masses --      2.5546                 2.2295                 2.5267
 Frc consts  --      2.1432                 1.8958                 2.3197
 IR Inten    --     37.4572                30.9472                43.1697

                     43                     44                     45
                      A                      A                      A
 Frequencies --   1279.4500              1303.2226              1324.9442
 Red. masses --      2.0399                 1.5844                 1.6734
 Frc consts  --      1.9674                 1.5855                 1.7308
 IR Inten    --    137.7147               145.4863               149.9365

                     46                     47                     48
                      A                      A                      A
 Frequencies --   1349.3105              1351.5591              1389.3059
 Red. masses --      3.1342                 2.3007                 1.2323
 Frc consts  --      3.3620                 2.4762                 1.4014
 IR Inten    --     15.2461                34.3896                14.5970

                     49                     50                     51
                      A                      A                      A
 Frequencies --   1423.7622              1455.9088              1459.7795
 Red. masses --      2.7533                 2.3409                 1.8424
 Frc consts  --      3.2884                 2.9235                 2.3132
 IR Inten    --    781.0362               327.2386                67.8053

                     52                     53                     54
                      A                      A                      A
 Frequencies --   1476.7374              1484.2010              1493.4632
 Red. masses --      1.8842                 1.0543                 1.2124
 Frc consts  --      2.4210                 1.3683                 1.5933
 IR Inten    --    164.2975                23.6489                84.2890

                     55                     56                     57
                      A                      A                      A
 Frequencies --   1500.2753              1529.0482              1571.8350
 Red. masses --      3.3398                 5.2131                 5.3252
 Frc consts  --      4.4291                 7.1811                 7.7517
 IR Inten    --    876.5195                18.2567                18.4540

                     58                     59                     60
                      A                      A                      A
 Frequencies --   1622.9542              1631.5376              3017.1126
 Red. masses --      5.9094                 6.5538                 1.0348
 Frc consts  --      9.1708                10.2787                 5.5499
 IR Inten    --      9.4052                 7.8750                80.2051

                     61                     62                     63
                      A                      A                      A
 Frequencies --   3035.6691              3070.0144              3078.1718
 Red. masses --      1.0602                 1.1016                 1.0999
 Frc consts  --      5.7566                 6.1175                 6.1405
 IR Inten    --     58.0033                 0.2635                98.2555

                     64                     65                     66
                      A                      A                      A
 Frequencies --   3093.6633              3158.7068              3172.2505
 Red. masses --      1.1041                 1.0858                 1.0898
 Frc consts  --      6.2258                 6.3830                 6.4613
 IR Inten    --     65.6056                 8.7590                19.1420

                     67                     68                     69
                      A                      A                      A
 Frequencies --   3186.2128              3190.2213              3532.7422
 Red. masses --      1.0920                 1.0950                 1.0640
 Frc consts  --      6.5315                 6.5662                 7.8234
 IR Inten    --     20.9678                36.3259               192.1766

 - Thermochemistry -
 -------------------
 Temperature   298.150 Kelvin.  Pressure   1.00000 Atm.
 Atom     1 has atomic number  6 and mass  12.00000

 Molecular mass:   202.06299 amu.
 Principal axes and moments of inertia in atomic units:
                           1         2         3
     Eigenvalues --  1826.187763502.322635148.33236
           X            0.99197   0.11377  -0.05525
           Y           -0.12541   0.94120  -0.31371
           Z            0.01631   0.31812   0.94791
 This molecule is an asymmetric top.
 Rotational symmetry number  1.
 Warning -- assumption of classical behavior for rotation
           may cause significant error
 Rotational temperatures (Kelvin)      0.04743     0.02473     0.01682
 Rotational constants (GHZ):           0.98826     0.51530     0.35055
 Zero-point vibrational energy     500909.0 (Joules/Mol)
                                  119.72013 (Kcal/Mol)
 Warning -- explicit consideration of  19 degrees of freedom as
           vibrations may cause significant error
 Vibrational temperatures:     66.34   100.29   142.93   201.29   239.54
          (Kelvin)            287.97   310.56   368.79   450.16   463.86
                              514.89   541.17   597.14   619.67   639.07
                              680.67   748.30   820.86   893.13   946.01
                              963.04  1002.94  1015.07  1019.97  1092.25
                             1107.98  1132.26  1263.23  1265.60  1285.54
                             1410.19  1411.15  1433.14  1490.85  1494.98
                             1543.06  1596.29  1598.05  1658.00  1716.85
                             1728.49  1796.02  1840.84  1875.05  1906.30
                             1941.36  1944.59  1998.90  2048.48  2094.73
                             2100.30  2124.70  2135.43  2148.76  2158.56
                             2199.96  2261.52  2335.07  2347.42  4340.95
                             4367.65  4417.07  4428.80  4451.09  4544.67
                             4564.16  4584.25  4590.02  5082.83

 Zero-point correction=                           0.190786 (Hartree/Particle)
 Thermal correction to Energy=                    0.203410
 Thermal correction to Enthalpy=                  0.204354
 Thermal correction to Gibbs Free Energy=         0.151015
 Sum of electronic and zero-point Energies=           -689.130253
 Sum of electronic and thermal Energies=              -689.117629
 Sum of electronic and thermal Enthalpies=            -689.116685
 Sum of electronic and thermal Free Energies=         -689.170024

                     E (Thermal)             CV                S
                      KCal/Mol        Cal/Mol-Kelvin    Cal/Mol-Kelvin
 Total                  127.642             49.303            112.261
 Electronic               0.000              0.000              1.377
 Translational            0.889              2.981             41.815
 Rotational               0.889              2.981             31.866
 Vibrational            125.864             43.342             37.204
 Vibration     1          0.595              1.979              4.978
 Vibration     2          0.598              1.969              4.162
 Vibration     3          0.604              1.950              3.467
 Vibration     4          0.615              1.913              2.805
 Vibration     5          0.624              1.884              2.475
 Vibration     6          0.638              1.840              2.132
 Vibration     7          0.645              1.817              1.994
 Vibration     8          0.666              1.752              1.687
 Vibration     9          0.701              1.649              1.347
 Vibration    10          0.707              1.631              1.298
 Vibration    11          0.733              1.559              1.131
 Vibration    12          0.747              1.521              1.055
 Vibration    13          0.778              1.438              0.909
 Vibration    14          0.792              1.403              0.856
 Vibration    15          0.804              1.374              0.814
 Vibration    16          0.830              1.310              0.729
 Vibration    17          0.875              1.205              0.610
 Vibration    18          0.927              1.095              0.503
 Vibration    19          0.981              0.988              0.415

 Optimization completed.
    -- Stationary point found.
 Normal termination of Gaussian 16 at Sun Feb 11 02:15:22 2024.
