 Gaussian 16, Revision A.03,
 Gaussian 16:  ES64L-G16RevA.03 25-Dec-2016

 ----------------------------------------------------------------------
 #P UB3LYP/6-311++G(d,p) nosym opt freq SCRF=(PCM,Solvent=n,n-DiMethylF
 ormamide)
 ----------------------------------------------------------------------

 -------
 Radical
 -------
 Symbolic Z-matrix:
 Charge = -1 Multiplicity = 2

 SCF Done:  E(UB3LYP) =  -648.957691057     A.U. after   16 cycles
 SCF Done:  E(UB3LYP) =  -648.958189965     A.U. after   13 cycles
 SCF Done:  E(UB3LYP) =  -648.958280207     A.U. after   12 cycles
 SCF Done:  E(UB3LYP) =  -648.958285679     A.U. after   12 cycles
 SCF Done:  E(UB3LYP) =  -648.958291641     A.U. after   10 cycles
 SCF Done:  E(UB3LYP) =  -648.958292807     A.U. after   10 cycles
 SCF Done:  E(UB3LYP) =  -648.958293119     A.U. after    9 cycles
 Optimization completed.
    -- Stationary point found.
 Normal termination of Gaussian 16 at Sat Feb 10 10:18:32 2024.

 ----------------------------------------------------------------------
 #P Geom=AllCheck Guess=TCheck SCRF=Check GenChk UB3LYP/6-311++G(d,p) F
 req
 ----------------------------------------------------------------------

 Structure from the checkpoint file:  "044-rad.chk"
 -------
 Radical
 -------
 Charge = -1 Multiplicity = 2

                          Input orientation:
 ---------------------------------------------------------------------
 Center     Atomic      Atomic             Coordinates (Angstroms)
 Number     Number       Type             X           Y           Z
 ---------------------------------------------------------------------
      1          6           0       -0.929647    2.103707    0.007768
      2          6           0       -2.088695    1.268411   -0.054445
      3          6           0       -2.046437   -0.088474   -0.127038
      4          6           0       -0.837681   -0.852233   -0.150980
      5          6           0        0.373062   -0.029451   -0.064797
      6          6           0        0.329970    1.352839    0.009533
      7          8           0       -0.998758    3.370376    0.051127
      8          8           0       -0.828498   -2.118075   -0.243445
      9          6           0        1.602502    2.158877    0.097587
     10          6           0        1.693888   -0.759203   -0.059350
     11          8           0       -3.332878   -0.594319   -0.256216
     12          8           0       -3.404581    1.704211   -0.133503
     13          6           0       -4.167713    0.513999    0.105324
     14          1           0        2.189526    1.891383    0.983318
     15          1           0        1.370075    3.222001    0.147778
     16          1           0        2.249056    1.988801   -0.770585
     17          1           0        1.529489   -1.834227   -0.124053
     18          1           0        2.266041   -0.551659    0.851815
     19          1           0        2.325462   -0.456793   -0.902156
     20          1           0       -5.061521    0.519217   -0.514612
     21          1           0       -4.407880    0.449399    1.175032
 ---------------------------------------------------------------------

 SCF Done:  E(UB3LYP) =  -648.958293119     A.U. after    1 cycles

 Alpha  occ. eigenvalues --  -19.16061 -19.16059 -19.07822 -19.07821 -10.28204
 Alpha  occ. eigenvalues --  -10.22464 -10.22463 -10.21602 -10.21532 -10.16904
 Alpha  occ. eigenvalues --  -10.16847 -10.15349 -10.15342  -1.12087  -1.02879
 Alpha  occ. eigenvalues --   -0.99764  -0.99317  -0.83335  -0.77899  -0.72524
 Alpha  occ. eigenvalues --   -0.69485  -0.67504  -0.63830  -0.58606  -0.57714
 Alpha  occ. eigenvalues --   -0.52084  -0.51210  -0.49657  -0.45953  -0.44492
 Alpha  occ. eigenvalues --   -0.43470  -0.41475  -0.40301  -0.40015  -0.39333
 Alpha  occ. eigenvalues --   -0.38847  -0.38375  -0.38333  -0.36987  -0.35562
 Alpha  occ. eigenvalues --   -0.35185  -0.34217  -0.33757  -0.26165  -0.24830
 Alpha  occ. eigenvalues --   -0.24238  -0.20838  -0.16135
 Alpha virt. eigenvalues --   -0.00598   0.00784   0.00898   0.01683   0.02800
 Alpha virt. eigenvalues --    0.03263   0.03531   0.03553   0.03981   0.04302
 Alpha virt. eigenvalues --    0.05923   0.06268   0.06356   0.07683   0.07794

  Beta  occ. eigenvalues --  -19.16032 -19.16030 -19.07135 -19.07134 -10.28203
  Beta  occ. eigenvalues --  -10.22287 -10.22286 -10.21520 -10.21449 -10.16806
  Beta  occ. eigenvalues --  -10.16747 -10.15357 -10.15351  -1.12023  -1.02740
  Beta  occ. eigenvalues --   -0.98559  -0.98138  -0.82786  -0.77734  -0.72140
  Beta  occ. eigenvalues --   -0.69338  -0.66749  -0.63741  -0.58273  -0.57396
  Beta  occ. eigenvalues --   -0.51947  -0.50962  -0.49396  -0.45797  -0.44042
  Beta  occ. eigenvalues --   -0.42837  -0.40719  -0.40071  -0.39300  -0.38747
  Beta  occ. eigenvalues --   -0.38569  -0.38305  -0.38157  -0.36016  -0.35055
  Beta  occ. eigenvalues --   -0.34930  -0.32826  -0.32373  -0.24203  -0.23598
  Beta  occ. eigenvalues --   -0.23550  -0.20167
  Beta virt. eigenvalues --   -0.08926  -0.00558   0.00809   0.01694   0.02210
  Beta virt. eigenvalues --    0.02918   0.03344   0.03595   0.03749   0.04297
  Beta virt. eigenvalues --    0.05910   0.05965   0.06421   0.06473   0.07730

 Mulliken charges and spin densities:
               1          2
     1  C   -0.969381   0.094920
     2  C    0.328583   0.049617
     3  C    0.329102   0.049755
     4  C   -0.969220   0.094902
     5  C    0.687334   0.089313
     6  C    0.688568   0.089480
     7  O   -0.523222   0.249025
     8  O   -0.523481   0.249007
     9  C   -0.466601   0.003436
    10  C   -0.467038   0.003457
    11  O   -0.212953   0.008181
    12  O   -0.213139   0.008145
    13  C   -0.045095   0.001202
    14  H    0.149564   0.003441
    15  H    0.181737  -0.001495
    16  H    0.150695   0.003476
    17  H    0.181651  -0.001493
    18  H    0.149633   0.003431
    19  H    0.150741   0.003467
    20  H    0.192471  -0.000206
    21  H    0.200051  -0.001061
 Sum of Mulliken charges =  -1.00000   1.00000

 Dipole moment (field-independent basis, Debye):
    X=              5.4177    Y=             -3.0138    Z=              1.1860  Tot=              6.3120
 Quadrupole moment (field-independent basis, Debye-Ang):
   XX=            -77.5159   YY=           -126.8173   ZZ=            -78.0764
   XY=              5.1611   XZ=             -3.0172   YZ=             -1.8464

  Exact polarizability: 197.173  -2.024 262.885  -0.728   8.481 104.908
 Approx polarizability: 197.484  -3.589 312.249   0.405  10.418 118.983

                      1                      2                      3
                      A                      A                      A
 Frequencies --     91.5416                93.0334               131.5103
 Red. masses --      1.2971                 2.0383                 2.3131
 Frc consts  --      0.0064                 0.0104                 0.0236
 IR Inten    --      7.0314                17.5401                 0.3706

                      4                      5                      6
                      A                      A                      A
 Frequencies --    136.7820               151.5537               175.8519
 Red. masses --      1.6974                 2.5313                 9.5485
 Frc consts  --      0.0187                 0.0343                 0.1740
 IR Inten    --      2.0222                 2.4395                 0.3755

                      7                      8                      9
                      A                      A                      A
 Frequencies --    223.4383               269.0313               313.7803
 Red. masses --      3.1888                 6.7224                 2.7965
 Frc consts  --      0.0938                 0.2867                 0.1622
 IR Inten    --     11.4385                 7.9177                 0.5374

                     10                     11                     12
                      A                      A                      A
 Frequencies --    314.9411               324.9904               364.5320
 Red. masses --      4.6461                 3.8220                11.0489
 Frc consts  --      0.2715                 0.2378                 0.8650
 IR Inten    --      8.0589                 4.3314                21.8682

                     13                     14                     15
                      A                      A                      A
 Frequencies --    429.3086               433.0158               457.9567
 Red. masses --      6.3637                 7.2415                 6.5560
 Frc consts  --      0.6910                 0.8000                 0.8101
 IR Inten    --      0.0088                11.9044                 6.3162

                     16                     17                     18
                      A                      A                      A
 Frequencies --    543.7938               585.5790               626.9083
 Red. masses --      8.5472                 6.3132                 6.8017
 Frc consts  --      1.4892                 1.2755                 1.5750
 IR Inten    --      6.5331                 0.0417                 3.0073

                     19                     20                     21
                      A                      A                      A
 Frequencies --    699.5174               730.0176               733.6187
 Red. masses --      8.2413                 7.8860                 3.9176
 Frc consts  --      2.3760                 2.4761                 1.2423
 IR Inten    --     14.0952                 1.3309                10.8585

                     22                     23                     24
                      A                      A                      A
 Frequencies --    745.9201               897.2384               897.9747
 Red. masses --      8.8891                 4.2689                 6.6569
 Frc consts  --      2.9140                 2.0248                 3.1627
 IR Inten    --      0.8669                47.4910                 6.2240

                     25                     26                     27
                      A                      A                      A
 Frequencies --    973.1525               998.5905              1023.6928
 Red. masses --      4.6608                 1.7390                 1.4024
 Frc consts  --      2.6006                 1.0217                 0.8659
 IR Inten    --      0.9097                30.1764                 0.7440

                     28                     29                     30
                      A                      A                      A
 Frequencies --   1033.5354              1051.4505              1055.1627
 Red. masses --      4.7154                 1.4854                 5.3853
 Frc consts  --      2.9677                 0.9675                 3.5326
 IR Inten    --    242.6209                 0.0175               359.6386

                     31                     32                     33
                      A                      A                      A
 Frequencies --   1110.8613              1144.9591              1181.5267
 Red. masses --      2.4464                 1.6240                 5.4788
 Frc consts  --      1.7787                 1.2544                 4.5063
 IR Inten    --    104.5494                27.7838                81.7939

                     34                     35                     36
                      A                      A                      A
 Frequencies --   1233.0358              1295.8266              1297.2823
 Red. masses --      1.1288                 4.0800                11.0183
 Frc consts  --      1.0112                 4.0365                10.9253
 IR Inten    --     38.6126                36.3230               271.4193

                     37                     38                     39
                      A                      A                      A
 Frequencies --   1382.0249              1393.3461              1393.6965
 Red. masses --      1.4902                 1.5581                 1.6144
 Frc consts  --      1.6770                 1.7822                 1.8476
 IR Inten    --      0.0398                86.0049               101.8509

                     40                     41                     42
                      A                      A                      A
 Frequencies --   1447.4111              1467.4767              1477.5790
 Red. masses --      1.7420                 1.2929                 1.2014
 Frc consts  --      2.1503                 1.6405                 1.5454
 IR Inten    --     11.9192                 1.8786               284.6986

                     43                     44                     45
                      A                      A                      A
 Frequencies --   1480.9031              1493.5421              1495.7634
 Red. masses --      1.0500                 1.0901                 3.2178
 Frc consts  --      1.3568                 1.4327                 4.2417
 IR Inten    --     11.1226                26.5372                25.3915

                     46                     47                     48
                      A                      A                      A
 Frequencies --   1512.5496              1523.3314              1533.0935
 Red. masses --      8.2030                 1.1847                 6.0759
 Frc consts  --     11.0571                 1.6197                 8.4139
 IR Inten    --   1365.6271                 7.4665                49.4596

                     49                     50                     51
                      A                      A                      A
 Frequencies --   1664.8290              2986.0597              3007.9684
 Red. masses --     11.1231                 1.0687                 1.0402
 Frc consts  --     18.1642                 5.6143                 5.5450
 IR Inten    --     13.7056               185.8552               130.7786

                     52                     53                     54
                      A                      A                      A
 Frequencies --   3009.7078              3043.5452              3049.3771
 Red. masses --      1.0411                 1.0996                 1.0998
 Frc consts  --      5.5566                 6.0014                 6.0252
 IR Inten    --      8.9897                83.0562                 0.0439

                     55                     56                     57
                      A                      A                      A
 Frequencies --   3119.2169              3119.6422              3136.3615
 Red. masses --      1.0955                 1.0958                 1.0997
 Frc consts  --      6.2801                 6.2834                 6.3738
 IR Inten    --      5.9389                23.0091                44.4954

 - Thermochemistry -
 -------------------
 Temperature   298.150 Kelvin.  Pressure   1.00000 Atm.
 Atom     1 has atomic number  6 and mass  12.00000

 Molecular mass:   180.04226 amu.
 Principal axes and moments of inertia in atomic units:
                           1         2         3
     Eigenvalues --  1555.732702234.292323747.81665
           X            0.99941  -0.03119  -0.01428
           Y            0.03037   0.99808  -0.05402
           Z            0.01594   0.05356   0.99844
 This molecule is an asymmetric top.
 Rotational symmetry number  1.
 Warning -- assumption of classical behavior for rotation
           may cause significant error
 Rotational temperatures (Kelvin)      0.05567     0.03877     0.02311
 Rotational constants (GHZ):           1.16006     0.80775     0.48154
 Zero-point vibrational energy     403789.5 (Joules/Mol)
                                   96.50801 (Kcal/Mol)
 Warning -- explicit consideration of  17 degrees of freedom as
           vibrations may cause significant error
 Vibrational temperatures:    131.71   133.85   189.21   196.80   218.05
          (Kelvin)            253.01   321.48   387.08   451.46   453.13
                              467.59   524.48   617.68   623.01   658.90
                              782.40   842.52   901.98  1006.45  1050.33
                             1055.51  1073.21  1290.93  1291.99  1400.15
                             1436.75  1472.87  1487.03  1512.80  1518.14
                             1598.28  1647.34  1699.95  1774.06  1864.41
                             1866.50  1988.43  2004.71  2005.22  2082.50
                             2111.37  2125.91  2130.69  2148.87  2152.07
                             2176.22  2191.73  2205.78  2395.32  4296.27
                             4327.80  4330.30  4378.98  4387.37  4487.86
                             4488.47  4512.52

 Zero-point correction=                           0.153795 (Hartree/Particle)
 Thermal correction to Energy=                    0.165454
 Thermal correction to Enthalpy=                  0.166399
 Thermal correction to Gibbs Free Energy=         0.115725
 Sum of electronic and zero-point Energies=           -648.804498
 Sum of electronic and thermal Energies=              -648.792839
 Sum of electronic and thermal Enthalpies=            -648.791895
 Sum of electronic and thermal Free Energies=         -648.842568

                     E (Thermal)             CV                S
                      KCal/Mol        Cal/Mol-Kelvin    Cal/Mol-Kelvin
 Total                  103.824             43.348            106.652
 Electronic               0.000              0.000              1.377
 Translational            0.889              2.981             41.471
 Rotational               0.889              2.981             30.944
 Vibrational            102.047             37.386             32.860
 Vibration     1          0.602              1.955              3.627
 Vibration     2          0.602              1.954              3.595
 Vibration     3          0.612              1.922              2.924
 Vibration     4          0.614              1.917              2.848
 Vibration     5          0.619              1.901              2.653
 Vibration     6          0.628              1.872              2.372
 Vibration     7          0.649              1.805              1.931
 Vibration     8          0.673              1.730              1.602
 Vibration     9          0.702              1.647              1.342
 Vibration    10          0.702              1.645              1.336
 Vibration    11          0.709              1.625              1.285
 Vibration    12          0.738              1.545              1.103
 Vibration    13          0.791              1.406              0.861
 Vibration    14          0.794              1.398              0.849
 Vibration    15          0.816              1.343              0.772
 Vibration    16          0.899              1.153              0.557
 Vibration    17          0.943              1.063              0.475

                           ! Non-Optimized Parameters !
 Normal termination of Gaussian 16 at Sat Feb 10 10:35:50 2024.
