 Gaussian 16, Revision A.03,
 Gaussian 16:  ES64L-G16RevA.03 25-Dec-2016

 ----------------------------------------------------------------
 #P UB3LYP/6-311++G(d,p) SCRF=(PCM,Solvent=n,n-DiMethylFormamide)
 ----------------------------------------------------------------

 ------------------
 Quinone PCM in DMF
 ------------------
 Symbolic Z-matrix:
 Charge =  0 Multiplicity = 1

                         Standard orientation:
 ---------------------------------------------------------------------
 Center     Atomic      Atomic             Coordinates (Angstroms)
 Number     Number       Type             X           Y           Z
 ---------------------------------------------------------------------
      1          6           0        2.653651   -1.857795    0.408911
      2          8           0        2.465644   -0.550402   -0.170370
      3          6           0        1.284906    0.091329   -0.081952
      4          6           0        1.266012    1.435668    0.006205
      5          6           0        0.003175    2.191657    0.040395
      6          8           0        0.004875    3.413475    0.129487
      7          6           0       -1.261712    1.439147    0.006703
      8          6           0       -1.284609    0.094809   -0.081377
      9          8           0       -2.467546   -0.543015   -0.168796
     10          6           0       -2.659049   -1.851264    0.407369
     11          6           0       -0.000956   -0.672642   -0.250455
     12          8           0       -0.002402   -1.848666   -0.564110
     13          1           0        3.730696   -1.954124    0.536673
     14          1           0        2.165449   -1.924330    1.384209
     15          1           0        2.274867   -2.635729   -0.250084
     16          1           0        2.186786    2.003156    0.059886
     17          1           0       -2.180851    2.009235    0.060850
     18          1           0       -2.174509   -1.919869    1.384385
     19          1           0       -3.736664   -1.946323    0.531068
     20          1           0       -2.278865   -2.628600   -0.251474
 ---------------------------------------------------------------------

 SCF Done:  E(UB3LYP) =  -610.681055114     A.U. after   14 cycles

 The electronic state is 1-A.
 Alpha  occ. eigenvalues --  -19.17825 -19.17820 -19.15827 -19.13347 -10.30625
 Alpha  occ. eigenvalues --  -10.28402 -10.27605 -10.27602 -10.22868 -10.22867
 Alpha  occ. eigenvalues --  -10.20025 -10.20023  -1.10895  -1.09234  -1.07418
 Alpha  occ. eigenvalues --   -1.06408  -0.86317  -0.80096  -0.73736  -0.71006
 Alpha  occ. eigenvalues --   -0.70493  -0.63130  -0.60670  -0.55249  -0.54113
 Alpha  occ. eigenvalues --   -0.52063  -0.51290  -0.49608  -0.48150  -0.47357
 Alpha  occ. eigenvalues --   -0.46006  -0.44407  -0.44062  -0.42604  -0.42538
 Alpha  occ. eigenvalues --   -0.42246  -0.38190  -0.37996  -0.35926  -0.34703
 Alpha  occ. eigenvalues --   -0.29096  -0.28557  -0.28478  -0.25905
 Alpha virt. eigenvalues --   -0.13665  -0.02229  -0.00916  -0.00421   0.00806
 Alpha virt. eigenvalues --    0.00871   0.02578   0.02713   0.02856   0.03179
 Alpha virt. eigenvalues --    0.04517   0.05255   0.05500   0.05868   0.05994

  Beta  occ. eigenvalues --  -19.17825 -19.17820 -19.15827 -19.13347 -10.30625
  Beta  occ. eigenvalues --  -10.28402 -10.27605 -10.27602 -10.22868 -10.22867
  Beta  occ. eigenvalues --  -10.20025 -10.20023  -1.10895  -1.09234  -1.07418
  Beta  occ. eigenvalues --   -1.06408  -0.86317  -0.80096  -0.73736  -0.71006
  Beta  occ. eigenvalues --   -0.70493  -0.63130  -0.60670  -0.55249  -0.54113
  Beta  occ. eigenvalues --   -0.52063  -0.51290  -0.49608  -0.48150  -0.47357
  Beta  occ. eigenvalues --   -0.46006  -0.44407  -0.44062  -0.42604  -0.42538
  Beta  occ. eigenvalues --   -0.42246  -0.38190  -0.37996  -0.35926  -0.34703
  Beta  occ. eigenvalues --   -0.29096  -0.28557  -0.28478  -0.25905
  Beta virt. eigenvalues --   -0.13665  -0.02229  -0.00916  -0.00421   0.00806
  Beta virt. eigenvalues --    0.00871   0.02578   0.02713   0.02856   0.03179
  Beta virt. eigenvalues --    0.04517   0.05255   0.05500   0.05868   0.05994

 Mulliken charges and spin densities:
               1          2
     1  C   -0.328146  -0.000000
     2  O   -0.179044   0.000000
     3  C   -0.131248   0.000000
     4  C    0.297039  -0.000000
     5  C   -0.423813   0.000000
     6  O   -0.332227  -0.000000
     7  C    0.292090  -0.000000
     8  C   -0.127153   0.000000
     9  O   -0.179389   0.000000
    10  C   -0.328037  -0.000000
    11  C    0.108245  -0.000000
    12  O   -0.240670  -0.000000
    13  H    0.167460   0.000000
    14  H    0.174266  -0.000000
    15  H    0.188849   0.000000
    16  H    0.255518  -0.000000
    17  H    0.255468  -0.000000
    18  H    0.174411   0.000000
    19  H    0.167496  -0.000000
    20  H    0.188886  -0.000000
 Sum of Mulliken charges =  -0.00000  -0.00000

 Dipole moment (field-independent basis, Debye):
    X=             -0.0088    Y=             -5.4087    Z=              2.2445  Tot=              5.8559
 Quadrupole moment (field-independent basis, Debye-Ang):
   XX=            -62.8398   YY=            -83.5187   ZZ=            -69.1403
   XY=             -0.0183   XZ=              0.0065   YZ=             -5.1305

 Normal termination of Gaussian 16 at Wed Jan 24 22:49:34 2024.
