 Gaussian 16, Revision A.03,
 Gaussian 16:  ES64L-G16RevA.03 25-Dec-2016

 --------------------------------------
 #P UB3LYP/6-311++G(d,p) nosym opt freq
 --------------------------------------

 -------
 Reduced
 -------
 Symbolic Z-matrix:
 Charge = -2 Multiplicity = 1

 SCF Done:  E(UB3LYP) =  -610.495980447     A.U. after   34 cycles
 SCF Done:  E(UB3LYP) =  -610.496048663     A.U. after   22 cycles
 SCF Done:  E(UB3LYP) =  -610.496054256     A.U. after   20 cycles
 SCF Done:  E(UB3LYP) =  -610.496056544     A.U. after   17 cycles
 SCF Done:  E(UB3LYP) =  -610.496056870     A.U. after   16 cycles
 Optimization completed.
    -- Stationary point found.
 Normal termination of Gaussian 16 at Mon Jan  8 01:35:41 2024.

 ----------------------------------------------------------------------
 #P Geom=AllCheck Guess=TCheck SCRF=Check GenChk UB3LYP/6-311++G(d,p) F
 req
 ----------------------------------------------------------------------

 Structure from the checkpoint file:  "279-an.chk"
 -------
 Reduced
 -------
 Charge = -2 Multiplicity = 1

                          Input orientation:
 ---------------------------------------------------------------------
 Center     Atomic      Atomic             Coordinates (Angstroms)
 Number     Number       Type             X           Y           Z
 ---------------------------------------------------------------------
      1          8           0       -1.273781    2.586414    0.342074
      2          6           0       -1.242062    1.301046    0.220160
      3          6           0       -2.410511    0.486327    0.194364
      4          6           0       -2.350985   -0.903501    0.061809
      5          8           0       -3.493981   -1.687174    0.037737
      6          6           0       -1.162445   -1.662449   -0.060167
      7          8           0       -1.277681   -2.977410   -0.178019
      8          6           0        0.038473   -0.901742   -0.040593
      9          6           0        1.311808   -1.533002   -0.154393
     10          6           0        2.491735   -0.817757   -0.138084
     11          6           0        2.465382    0.599515   -0.004062
     12          6           0        1.240368    1.242801    0.108621
     13          6           0        0.012143    0.554169    0.096677
     14          1           0       -3.379060    0.975130    0.281681
     15          1           0        1.313712   -2.614910   -0.255866
     16          1           0        3.445599   -1.338490   -0.227654
     17          1           0        3.393835    1.168762    0.009488
     18          1           0        1.180653    2.323279    0.212287
     19          1           0       -3.053726   -2.573876   -0.064235
 ---------------------------------------------------------------------

 SCF Done:  E(UB3LYP) =  -610.496056870     A.U. after    2 cycles

 Alpha  occ. eigenvalues --  -18.85407 -18.76075 -18.75283  -9.92216  -9.91659
 Alpha  occ. eigenvalues --   -9.90872  -9.90218  -9.90057  -9.89778  -9.89734
 Alpha  occ. eigenvalues --   -9.88236  -9.87828  -9.86182  -0.76334  -0.66579
 Alpha  occ. eigenvalues --   -0.65457  -0.57128  -0.50627  -0.47160  -0.44498
 Alpha  occ. eigenvalues --   -0.38368  -0.33715  -0.32093  -0.27867  -0.24699
 Alpha  occ. eigenvalues --   -0.22680  -0.18772  -0.17678  -0.16652  -0.15016
 Alpha  occ. eigenvalues --   -0.12937  -0.12591  -0.10239  -0.09508  -0.09164
 Alpha  occ. eigenvalues --   -0.08844  -0.06236  -0.05486  -0.04345  -0.03419
 Alpha  occ. eigenvalues --    0.02320   0.03807   0.05184   0.06215   0.07024
 Alpha  occ. eigenvalues --    0.14963
 Alpha virt. eigenvalues --    0.17125   0.18811   0.20691   0.21449   0.21847
 Alpha virt. eigenvalues --    0.23118   0.24334   0.26204   0.26912   0.27633
 Alpha virt. eigenvalues --    0.28935   0.29311   0.29365   0.30404   0.30724

  Beta  occ. eigenvalues --  -18.85407 -18.76075 -18.75283  -9.92216  -9.91659
  Beta  occ. eigenvalues --   -9.90872  -9.90218  -9.90057  -9.89778  -9.89734
  Beta  occ. eigenvalues --   -9.88236  -9.87828  -9.86182  -0.76334  -0.66579
  Beta  occ. eigenvalues --   -0.65457  -0.57128  -0.50627  -0.47160  -0.44498
  Beta  occ. eigenvalues --   -0.38368  -0.33715  -0.32093  -0.27867  -0.24699
  Beta  occ. eigenvalues --   -0.22680  -0.18772  -0.17678  -0.16652  -0.15016
  Beta  occ. eigenvalues --   -0.12937  -0.12591  -0.10239  -0.09508  -0.09164
  Beta  occ. eigenvalues --   -0.08844  -0.06236  -0.05486  -0.04345  -0.03419
  Beta  occ. eigenvalues --    0.02320   0.03807   0.05184   0.06215   0.07024
  Beta  occ. eigenvalues --    0.14963
  Beta virt. eigenvalues --    0.17125   0.18811   0.20691   0.21449   0.21847
  Beta virt. eigenvalues --    0.23118   0.24334   0.26204   0.26912   0.27633
  Beta virt. eigenvalues --    0.28935   0.29311   0.29365   0.30404   0.30724

 Mulliken charges and spin densities:
               1          2
     1  O   -0.557362   0.000000
     2  C   -0.788756  -0.000000
     3  C    0.622302   0.000000
     4  C   -0.110563  -0.000000
     5  O   -0.340311   0.000000
     6  C   -1.261852   0.000000
     7  O   -0.625188  -0.000000
     8  C    0.564265  -0.000000
     9  C   -0.019054  -0.000000
    10  C   -0.287604  -0.000000
    11  C   -0.355609  -0.000000
    12  C    0.085247   0.000000
    13  C    0.419215   0.000000
    14  H    0.071493  -0.000000
    15  H    0.115424   0.000000
    16  H    0.064566  -0.000000
    17  H    0.062160  -0.000000
    18  H    0.110003   0.000000
    19  H    0.231625  -0.000000
 Sum of Mulliken charges =  -2.00000   0.00000

 Dipole moment (field-independent basis, Debye):
    X=              8.1710    Y=              1.8596    Z=             -0.6140  Tot=              8.4024
 Quadrupole moment (field-independent basis, Debye-Ang):
   XX=           -124.6896   YY=           -136.6216   ZZ=            -87.7447
   XY=             -3.8746   XZ=              1.6176   YZ=             -4.3673

  Exact polarizability: 253.121   7.315 193.670  -5.421   7.656 110.022
 Approx polarizability: 435.203  18.521 326.197 -10.680  16.146 147.476

                      1                      2                      3
                      A                      A                      A
 Frequencies --     98.9756               136.1790               172.3036
 Red. masses --      7.6784                 4.3332                 8.6250
 Frc consts  --      0.0443                 0.0473                 0.1509
 IR Inten    --      4.0393                 0.2793                 1.9933

                      4                      5                      6
                      A                      A                      A
 Frequencies --    254.1474               260.1620               320.5787
 Red. masses --      6.0652                 5.6448                 5.9487
 Frc consts  --      0.2308                 0.2251                 0.3602
 IR Inten    --      5.3393                 0.0004                 9.0742

                      7                      8                      9
                      A                      A                      A
 Frequencies --    347.1178               347.4881               427.2878
 Red. masses --     11.1129                 7.3812                 9.0213
 Frc consts  --      0.7889                 0.5251                 0.9704
 IR Inten    --      0.1331                 0.1175                 1.9676

                     10                     11                     12
                      A                      A                      A
 Frequencies --    432.5213               472.2063               472.8945
 Red. masses --      3.5630                 9.1909                 3.8859
 Frc consts  --      0.3927                 1.2075                 0.5120
 IR Inten    --      3.7470                 8.8182                 1.0433

                     13                     14                     15
                      A                      A                      A
 Frequencies --    531.3720               630.4198               638.6524
 Red. masses --      8.7243                 3.2330                 6.3894
 Frc consts  --      1.4514                 0.7570                 1.5355
 IR Inten    --      3.6417                 0.0940                13.3397

                     16                     17                     18
                      A                      A                      A
 Frequencies --    660.3212               676.7979               700.0190
 Red. masses --      1.5135                 5.5172                 4.5048
 Frc consts  --      0.3888                 1.4890                 1.3006
 IR Inten    --     47.7202                 2.1170                 0.0628

                     19                     20                     21
                      A                      A                      A
 Frequencies --    721.9948               727.7024               750.7206
 Red. masses --      6.6090                 2.2962                 1.5662
 Frc consts  --      2.0298                 0.7164                 0.5201
 IR Inten    --     46.9867                34.6685                18.1679

                     22                     23                     24
                      A                      A                      A
 Frequencies --    790.6182               809.5587               831.0730
 Red. masses --      1.6653                 1.2210                 4.4865
 Frc consts  --      0.6133                 0.4715                 1.8257
 IR Inten    --      9.8226                67.1929                32.4326

                     25                     26                     27
                      A                      A                      A
 Frequencies --    919.0916               934.0839               987.6051
 Red. masses --      1.2313                 1.3071                 6.7429
 Frc consts  --      0.6128                 0.6719                 3.8749
 IR Inten    --      1.9483                 2.1837               158.9196

                     28                     29                     30
                      A                      A                      A
 Frequencies --   1011.9123              1075.4238              1114.7778
 Red. masses --      2.1198                 3.0543                 1.7888
 Frc consts  --      1.2789                 2.0812                 1.3097
 IR Inten    --     10.4327                32.2419                52.2255

                     31                     32                     33
                      A                      A                      A
 Frequencies --   1129.4787              1154.2221              1188.6473
 Red. masses --      1.6493                 2.8042                 1.6338
 Frc consts  --      1.2397                 2.2011                 1.3601
 IR Inten    --     16.3829                71.7474               306.9477

                     34                     35                     36
                      A                      A                      A
 Frequencies --   1224.6699              1247.3204              1323.4209
 Red. masses --      3.3781                 1.9841                 5.1354
 Frc consts  --      2.9851                 1.8187                 5.2993
 IR Inten    --    208.0320                18.1582               283.8768

                     37                     38                     39
                      A                      A                      A
 Frequencies --   1353.8304              1412.4122              1433.8579
 Red. masses --      1.9830                 6.3591                 6.3304
 Frc consts  --      2.1414                 7.4743                 7.6682
 IR Inten    --     29.3969               551.7528               138.8371

                     40                     41                     42
                      A                      A                      A
 Frequencies --   1440.3832              1474.8807              1506.1252
 Red. masses --      2.4506                 3.2103                 4.1590
 Frc consts  --      2.9955                 4.1144                 5.5586
 IR Inten    --     96.8375               279.7549                22.6885

                     43                     44                     45
                      A                      A                      A
 Frequencies --   1553.9899              1573.3532              1610.3904
 Red. masses --      3.6531                 3.7300                 5.2768
 Frc consts  --      5.1976                 5.4402                 8.0628
 IR Inten    --    192.1378               216.0989                72.0262

                     46                     47                     48
                      A                      A                      A
 Frequencies --   3074.2414              3102.4498              3117.4180
 Red. masses --      1.0822                 1.0892                 1.0876
 Frc consts  --      6.0259                 6.1771                 6.2276
 IR Inten    --     51.1501               113.9877                87.6988

                     49                     50                     51
                      A                      A                      A
 Frequencies --   3141.5705              3146.0149              3259.4414
 Red. masses --      1.0901                 1.0911                 1.0637
 Frc consts  --      6.3386                 6.3625                 6.6580
 IR Inten    --     46.0125                42.2582               153.6542

 - Thermochemistry -
 -------------------
 Temperature   298.150 Kelvin.  Pressure   1.00000 Atm.
 Atom     1 has atomic number  8 and mass  15.99491

 Molecular mass:   174.03169 amu.
 Principal axes and moments of inertia in atomic units:
                           1         2         3
     Eigenvalues --  1467.597212281.365863748.96304
           X            0.92866  -0.36847   0.04269
           Y            0.37090   0.92400  -0.09303
           Z           -0.00517   0.10223   0.99475
 This molecule is an asymmetric top.
 Rotational symmetry number  1.
 Warning -- assumption of classical behavior for rotation
           may cause significant error
 Rotational temperatures (Kelvin)      0.05902     0.03797     0.02310
 Rotational constants (GHZ):           1.22973     0.79108     0.48140
 Zero-point vibrational energy     345255.0 (Joules/Mol)
                                   82.51792 (Kcal/Mol)
 Warning -- explicit consideration of  13 degrees of freedom as
           vibrations may cause significant error
 Vibrational temperatures:    142.40   195.93   247.91   365.66   374.32
          (Kelvin)            461.24   499.43   499.96   614.77   622.30
                              679.40   680.39   764.53   907.03   918.88
                              950.05   973.76  1007.17  1038.79  1047.00
                             1080.12  1137.52  1164.77  1195.73  1322.37
                             1343.94  1420.94  1455.92  1547.29  1603.92
                             1625.07  1660.67  1710.20  1762.03  1794.62
                             1904.11  1947.86  2032.15  2063.00  2072.39
                             2122.02  2166.98  2235.84  2263.70  2316.99
                             4423.15  4463.73  4485.27  4520.02  4526.41
                             4689.61

 Zero-point correction=                           0.131501 (Hartree/Particle)
 Thermal correction to Energy=                    0.141221
 Thermal correction to Enthalpy=                  0.142165
 Thermal correction to Gibbs Free Energy=         0.096586
 Sum of electronic and zero-point Energies=           -610.364556
 Sum of electronic and thermal Energies=              -610.354836
 Sum of electronic and thermal Enthalpies=            -610.353891
 Sum of electronic and thermal Free Energies=         -610.399471

                     E (Thermal)             CV                S
                      KCal/Mol        Cal/Mol-Kelvin    Cal/Mol-Kelvin
 Total                   88.618             39.546             95.929
 Electronic               0.000              0.000              0.000
 Translational            0.889              2.981             41.370
 Rotational               0.889              2.981             30.907
 Vibrational             86.840             33.584             23.652
 Vibration     1          0.604              1.950              3.474
 Vibration     2          0.614              1.917              2.857
 Vibration     3          0.626              1.877              2.410
 Vibration     4          0.665              1.756              1.702
 Vibration     5          0.668              1.746              1.661
 Vibration     6          0.706              1.634              1.307
 Vibration     7          0.725              1.581              1.179
 Vibration     8          0.725              1.580              1.178
 Vibration     9          0.789              1.411              0.868
 Vibration    10          0.793              1.399              0.850
 Vibration    11          0.829              1.312              0.731
 Vibration    12          0.830              1.310              0.729
 Vibration    13          0.886              1.181              0.584

 Optimization completed.
    -- Stationary point found.
 Normal termination of Gaussian 16 at Mon Jan  8 01:49:54 2024.
