 Gaussian 16, Revision A.03,
 Gaussian 16:  ES64L-G16RevA.03 25-Dec-2016

 ----------------------------------------------------------------
 #P UB3LYP/6-311++G(d,p) SCRF=(PCM,Solvent=n,n-DiMethylFormamide)
 ----------------------------------------------------------------

 -------
 Reduced
 -------
 Symbolic Z-matrix:
 Charge = -2 Multiplicity = 1

                         Standard orientation:
 ---------------------------------------------------------------------
 Center     Atomic      Atomic             Coordinates (Angstroms)
 Number     Number       Type             X           Y           Z
 ---------------------------------------------------------------------
      1          8           0        0.252693    3.014777    0.000048
      2          6           0       -0.159880    1.790921   -0.000286
      3          6           0       -1.537382    1.427336   -0.000031
      4          6           0       -1.959798    0.095307   -0.000045
      5          8           0       -3.302716   -0.247819    0.000123
      6          6           0       -1.105011   -1.032898   -0.000029
      7          8           0       -1.665756   -2.233671    0.000157
      8          6           0        0.284388   -0.731511   -0.000062
      9          6           0        1.262738   -1.768647   -0.000173
     10          6           0        2.616781   -1.502870   -0.000120
     11          6           0        3.079787   -0.156415    0.000216
     12          6           0        2.150948    0.875298    0.000160
     13          6           0        0.760716    0.651357   -0.000089
     14          1           0       -2.278580    2.224371    0.000001
     15          1           0        0.892190   -2.790175   -0.000375
     16          1           0        3.333201   -2.324931   -0.000050
     17          1           0        4.147463    0.058806    0.000371
     18          1           0        2.466724    1.915505    0.000208
     19          1           0       -3.194495   -1.237137   -0.000023
 ---------------------------------------------------------------------

 SCF Done:  E(UB3LYP) =  -610.771648767     A.U. after   16 cycles

 The electronic state is 1-A.
 Alpha  occ. eigenvalues --  -19.11017 -19.02583 -19.02017 -10.17980 -10.17835
 Alpha  occ. eigenvalues --  -10.16129 -10.15049 -10.14587 -10.14522 -10.14496
 Alpha  occ. eigenvalues --  -10.14077 -10.13570 -10.12049  -1.02094  -0.93400
 Alpha  occ. eigenvalues --   -0.91997  -0.82261  -0.76268  -0.72215  -0.69868
 Alpha  occ. eigenvalues --   -0.64139  -0.58862  -0.57352  -0.53233  -0.49913
 Alpha  occ. eigenvalues --   -0.47689  -0.44467  -0.42865  -0.41823  -0.39953
 Alpha  occ. eigenvalues --   -0.38709  -0.37929  -0.36339  -0.35653  -0.34697
 Alpha  occ. eigenvalues --   -0.34459  -0.31839  -0.31571  -0.30033  -0.29383
 Alpha  occ. eigenvalues --   -0.22949  -0.22347  -0.21417  -0.19863  -0.19807
 Alpha  occ. eigenvalues --   -0.11379
 Alpha virt. eigenvalues --   -0.00538   0.00175   0.01272   0.01563   0.01706
 Alpha virt. eigenvalues --    0.03089   0.03470   0.05367   0.05690   0.05821
 Alpha virt. eigenvalues --    0.07154   0.07298   0.07973   0.08903   0.09123

  Beta  occ. eigenvalues --  -19.11017 -19.02583 -19.02017 -10.17980 -10.17835
  Beta  occ. eigenvalues --  -10.16129 -10.15049 -10.14587 -10.14522 -10.14496
  Beta  occ. eigenvalues --  -10.14077 -10.13570 -10.12049  -1.02094  -0.93400
  Beta  occ. eigenvalues --   -0.91997  -0.82261  -0.76268  -0.72215  -0.69868
  Beta  occ. eigenvalues --   -0.64139  -0.58862  -0.57352  -0.53233  -0.49913
  Beta  occ. eigenvalues --   -0.47689  -0.44467  -0.42865  -0.41823  -0.39953
  Beta  occ. eigenvalues --   -0.38709  -0.37929  -0.36339  -0.35653  -0.34697
  Beta  occ. eigenvalues --   -0.34459  -0.31839  -0.31571  -0.30033  -0.29383
  Beta  occ. eigenvalues --   -0.22949  -0.22347  -0.21417  -0.19863  -0.19807
  Beta  occ. eigenvalues --   -0.11379
  Beta virt. eigenvalues --   -0.00538   0.00175   0.01272   0.01563   0.01706
  Beta virt. eigenvalues --    0.03089   0.03470   0.05367   0.05690   0.05821
  Beta virt. eigenvalues --    0.07154   0.07298   0.07973   0.08903   0.09123

 Mulliken charges and spin densities:
               1          2
     1  O   -0.689465   0.000000
     2  C   -0.436933   0.000000
     3  C    0.377082  -0.000000
     4  C   -0.170804  -0.000000
     5  O   -0.362565   0.000000
     6  C   -0.813895   0.000000
     7  O   -0.740789   0.000000
     8  C    0.331240  -0.000000
     9  C    0.015236   0.000000
    10  C   -0.392685  -0.000000
    11  C   -0.447399  -0.000000
    12  C    0.103527   0.000000
    13  C    0.210508  -0.000000
    14  H    0.143933  -0.000000
    15  H    0.143669  -0.000000
    16  H    0.160226   0.000000
    17  H    0.155701  -0.000000
    18  H    0.139909  -0.000000
    19  H    0.273505   0.000000
 Sum of Mulliken charges =  -2.00000   0.00000

 Dipole moment (field-independent basis, Debye):
    X=              5.8480    Y=             -3.6541    Z=             -0.0008  Tot=              6.8957
 Quadrupole moment (field-independent basis, Debye-Ang):
   XX=           -109.8855   YY=           -133.4740   ZZ=            -86.3200
   XY=            -10.7915   XZ=              0.0025   YZ=              0.0017

 Normal termination of Gaussian 16 at Sun Jan 21 09:02:11 2024.
