 Q-Chem 5.4, Q-Chem, Inc., Pleasanton, CA (2021)
 Q-Chem 5.4.0 for Intel X86 EM64T Linux

User input:
--------------------------------------------------------------
$molecule
0 1
O                  0.1513730000      0.4107150000      2.6392930000
C                  0.0823680000      0.2203870000      1.4159560000
C                 -1.1889700000      0.1136200000      0.7157040000
C                 -2.4256730000      0.2224620000      1.4042460000
C                 -3.6161730000      0.1128820000      0.6877490000
C                 -3.5944760000     -0.1009790000     -0.6876410000
C                 -2.3967600000     -0.2117030000     -1.3882770000
C                 -1.2060460000     -0.1024580000     -0.6745080000
O                 -0.0555400000     -0.2191480000     -1.4145810000
C                  1.1634030000     -0.1257720000     -0.8010440000
C                  2.2891230000     -0.2542360000     -1.6167020000
C                  3.5479670000     -0.1672150000     -1.0427480000
C                  3.6952470000      0.0465200000      0.3357670000
C                  2.5727380000      0.1724480000      1.1346090000
C                  1.2857900000      0.0882390000      0.5783330000
O                 -2.4699220000      0.4287680000      2.7322570000
H                 -4.5545260000      0.1970900000      1.2207290000
H                 -4.5203850000     -0.1861460000     -1.2440920000
O                 -2.4169840000     -0.4217850000     -2.7395030000
H                  2.1587360000     -0.4189670000     -2.6790820000
H                  4.4256240000     -0.2662160000     -1.6711380000
H                  4.6850390000      0.1123920000      0.7708290000
H                  2.6500190000      0.3380550000      2.2021800000
H                 -1.5400780000      0.4772030000      3.0547050000
H                 -1.5090200000     -0.4733140000     -3.0612160000
$end
$rem
MAX_SCF_CYCLES=200
BASIS  =  6-311++G(d,p)
GUI  =  2
JOB_TYPE  =  SP
METHOD  =  B3LYP
SOLVENT_METHOD = COSMO
$end
$solvent
dielectric 37.219
opticaldielectric 1.43
$end

--------------------------------------------------------------

             Standard Nuclear Orientation (Angstroms)
    I     Atom           X                Y                Z
 ----------------------------------------------------------------
    1      O      -0.3084692428    -2.6169570116    -0.0003541549
    2      C      -0.3069158090    -1.3769822740    -0.0000537541
    3      C       0.9240081878    -0.6005297816    -0.0001377110
    4      C       2.1968022968    -1.2293112410    -0.0000398941
    5      C       3.3461109200    -0.4407963965     0.0000364269
    6      C       3.2487268960     0.9478796951     0.0000991741
    7      C       2.0141961877     1.5910034422     0.0000637186
    8      C       0.8645245778     0.8052199812    -0.0001008631
    9      O      -0.3250355717     1.4907382469    -0.0002249879
   10      C      -1.5084152110     0.8047488971    -0.0001455952
   11      C      -2.6773874723     1.5679987510    -0.0002053142
   12      C      -3.9027901166     0.9198688440     0.0000132126
   13      C      -3.9739666856    -0.4810635136     0.0002946561
   14      C      -2.8091256577    -1.2275072398     0.0002728003
   15      C      -1.5546868119    -0.5957221311     0.0000338435
   16      O       2.3140946943    -2.5688543808     0.0001211570
   17      H       4.3124286225    -0.9285413197     0.0001258300
   18      H       4.1426429444     1.5603441368     0.0002239409
   19      O       1.9600015526     2.9575385097     0.0001678849
   20      H      -2.6056762308     2.6485753574    -0.0003844825
   21      H      -4.8137539414     1.5073225943    -0.0000179515
   22      H      -4.9383580268    -0.9742729706     0.0004950889
   23      H      -2.8275231382    -2.3104510828     0.0004653654
   24      H       1.4033635164    -2.9450155111     0.0003491782
   25      H       1.0356569826     3.2334736849     0.0002796350
 ----------------------------------------------------------------

    9    -801.3354893392      4.28e-06  Convergence criterion met
 Total energy in the final basis set =     -801.3354893392
    5    -801.3518416773      3.28e-06  Convergence criterion met
 Total energy in the final basis set =     -801.3518416773

                    Orbital Energies (a.u.)
 --------------------------------------------------------------

 Alpha MOs
 -- Occupied --
-19.2141 -19.1670 -19.1588 -19.1297 -10.2853 -10.2714 -10.2698 -10.2588
-10.2499 -10.2078 -10.2057 -10.1986 -10.1972 -10.1968 -10.1944 -10.1888
-10.1853  -1.1353  -1.0848  -1.0763  -1.0555  -0.8879  -0.8774  -0.8070
 -0.7930  -0.7727  -0.7497  -0.6868  -0.6776  -0.6311  -0.6244  -0.5899
 -0.5818  -0.5694  -0.5527  -0.5087  -0.5041  -0.4944  -0.4942  -0.4657
 -0.4602  -0.4518  -0.4386  -0.4354  -0.4289  -0.4273  -0.4168  -0.4023
 -0.3919  -0.3868  -0.3784  -0.3754  -0.3642  -0.3282  -0.2871  -0.2853
 -0.2801  -0.2635  -0.2212

          Ground-State Mulliken Net Atomic Charges

     Atom                 Charge (a.u.)
  ----------------------------------------
      1 O                    -0.391798
      2 C                    -0.005991
      3 C                     1.392545
      4 C                    -0.038732
      5 C                    -0.059140
      6 C                    -0.002846
      7 C                    -1.055551
      8 C                    -0.506978
      9 O                    -0.087394
     10 C                    -1.336298
     11 C                    -0.351828
     12 C                    -0.421191
     13 C                    -0.277146
     14 C                     0.349077
     15 C                     1.378190
     16 O                    -0.338548
     17 H                     0.234953
     18 H                     0.248225
     19 O                    -0.301572
     20 H                     0.232105
     21 H                     0.229186
     22 H                     0.217762
     23 H                     0.222015
     24 H                     0.346917
     25 H                     0.324037
  ----------------------------------------
  Sum of atomic charges =     0.000000

                    Cartesian Multipole Moments
 -----------------------------------------------------------------
    Charge (ESU x 10^10)
                -0.0000
    Dipole Moment (Debye)
         X      -4.2675      Y       4.4146      Z       0.0019
       Tot       6.1401
    Quadrupole Moments (Debye-Ang)
        XX     -80.7253     XY      -2.3615     YY    -104.2582
        XZ       0.0004     YZ      -0.0045     ZZ    -100.7683

 Total job time:  69.78s(wall), 342.38s(cpu)
        *  Thank you very much for using Q-Chem.  Have a nice day.  *
