 Q-Chem 5.4, Q-Chem, Inc., Pleasanton, CA (2021)
 Q-Chem 5.4.0 for Intel X86 EM64T Linux

User input:
--------------------------------------------------------------
$molecule
-2 1
C                  4.2105050000     -1.3077330000      3.8868240000
C                  3.4382090000     -0.9692230000      4.9751020000
C                  2.5050380000      0.0928910000      4.9008010000
C                  4.0859060000     -0.5938260000      2.6597820000
C                  3.1394340000      0.4865000000      2.5710250000
C                  2.3758030000      0.7908720000      3.7113130000
C                  4.8926370000     -0.9471150000      1.5357230000
C                  4.6886350000     -0.1697020000      0.3536380000
C                  3.7887190000      0.8847120000      0.2227180000
C                  2.9577650000      1.2623910000      1.3369680000
O                  5.7820780000     -1.8979630000      1.4990290000
O                  2.1170800000      2.2186320000      1.2659960000
O                  5.4992230000     -0.5609240000     -0.6872610000
O                  3.4975570000     -1.6163530000      6.2128950000
C                  4.4078630000     -2.6837820000      6.3331520000
C                  3.6710360000      1.6578290000     -1.0657420000
C                  2.5621200000      1.1484660000     -2.0132870000
C                  2.4454830000      1.9901040000     -3.2917690000
C                  1.3078880000      1.6087110000     -4.2580550000
C                  1.4961530000      0.2157040000     -4.8887440000
C                  1.1386960000      2.6654960000     -5.3679340000
C                  0.0195070000      2.3179100000     -6.3592560000
C                  0.2186240000      0.9261160000     -6.9700070000
C                  0.3768630000     -0.1402550000     -5.8795840000
H                  4.9347460000     -2.1123130000      3.9037590000
H                  1.9103710000      0.3354330000      5.7756750000
H                  1.6676280000      1.6086340000      3.6221240000
H                  5.9903010000     -1.2996670000     -0.2499620000
H                  4.3103300000     -3.0587580000      7.3554630000
H                  5.4434720000     -2.3598220000      6.1626800000
H                  4.1839950000     -3.4940970000      5.6263230000
H                  4.6278180000      1.6305350000     -1.6008040000
H                  3.4450540000      2.7006330000     -0.8136970000
H                  1.6113260000      1.1716780000     -1.4691910000
H                  2.7687180000      0.1019030000     -2.2603020000
H                  3.3990000000      1.9539430000     -3.8400320000
H                  2.3072500000      3.0400030000     -2.9991060000
H                  0.3723350000      1.5865500000     -3.6782040000
H                  1.5574540000     -0.5447820000     -4.1046430000
H                  2.4624680000      0.1968100000     -5.4133240000
H                  2.0885630000      2.7602290000     -5.9139220000
H                  0.9468730000      3.6456560000     -4.9133760000
H                 -0.0463260000      3.0751680000     -7.1519970000
H                 -0.9452890000      2.3415690000     -5.8337080000
H                  1.1228020000      0.9365560000     -7.5951210000
H                 -0.6117700000      0.6772960000     -7.6432900000
H                  0.5713240000     -1.1198220000     -6.3351670000
H                 -0.5708960000     -0.2386610000     -5.3328550000
$end
$rem
MAX_SCF_CYCLES=200
SCF_Guess=core
BASIS  =  6-311++G(d,p)
GUI  =  2
JOB_TYPE  =  SP
METHOD  =  B3LYP
THRESH = 14
SCF_CONVERGENCE = 8
SOLVENT_METHOD = COSMO
$end
$solvent
dielectric 37.219
opticaldielectric 1.43
$end

--------------------------------------------------------------

             Standard Nuclear Orientation (Angstroms)
    I     Atom           X                Y                Z
 ----------------------------------------------------------------
    1      C       4.4913233776    -0.4327013089     0.3791362607
    2      C       5.2101859767     0.7165157997     0.6197931490
    3      C       4.6303576283     1.9917391847     0.4148070336
    4      C       3.1449698001    -0.3618068982    -0.0825196850
    5      C       2.5436744104     0.9285565928    -0.2927510659
    6      C       3.3214621749     2.0700303458    -0.0317621659
    7      C       2.4058445686    -1.5574262846    -0.3341639466
    8      C       1.0642719758    -1.3755032899    -0.7928574587
    9      C       0.4427730525    -0.1491822222    -1.0134327610
   10      C       1.1602646058     1.0747477980    -0.7646754165
   11      O       2.8438115493    -2.7750660545    -0.1854966143
   12      O       0.6342900462     2.2217463501    -0.9488770133
   13      O       0.4126419754    -2.5663744950    -1.0182069710
   14      O       6.5326196885     0.7360951733     1.0728016025
   15      C       7.1501584558    -0.5093332572     1.2965812375
   16      C      -0.9728938145    -0.0699301618    -1.5246027801
   17      C      -2.0416806608     0.0645737847    -0.4170874288
   18      C      -3.4640227729     0.1880096381    -0.9811631715
   19      C      -4.5885672294     0.4131379367     0.0474323043
   20      C      -4.7931241348    -0.7899311395     0.9878907549
   21      C      -5.9195377851     0.7650261160    -0.6467895282
   22      C      -7.0703101111     0.9883245440     0.3441596222
   23      C      -7.2535829976    -0.2144420697     1.2766393400
   24      C      -5.9414893469    -0.5714301119     1.9852850901
   25      H       4.8987281354    -1.4253819582     0.5232448604
   26      H       5.2225346546     2.8791867641     0.6138626587
   27      H       2.8481108854     3.0328871318    -0.1962205599
   28      H       1.1311784958    -3.2005103559    -0.7738584159
   29      H       8.1639128193    -0.2930373627     1.6440832431
   30      H       7.2016640539    -1.1114301168     0.3793444468
   31      H       6.6222309465    -1.0965561473     2.0599922265
   32      H      -1.1993671406    -0.9607375783    -2.1226329473
   33      H      -1.0482542885     0.8107533082    -2.1732568893
   34      H      -1.8041678173     0.9519674282     0.1801634861
   35      H      -1.9661185916    -0.8027802470     0.2469762836
   36      H      -3.7015886037    -0.7106393148    -1.5703041901
   37      H      -3.4789237882     1.0255020652    -1.6921007906
   38      H      -4.3027754202     1.2754203171     0.6693405341
   39      H      -3.8656728993    -1.0055711145     1.5266344362
   40      H      -5.0091881872    -1.6786195833     0.3772722046
   41      H      -6.1870494465    -0.0513348637    -1.3333147039
   42      H      -5.7820157698     1.6576067328    -1.2701034156
   43      H      -8.0062962477     1.2020840841    -0.1891777632
   44      H      -6.8540541197     1.8791589958     0.9501621765
   45      H      -7.5874342886    -1.0780307034     0.6840413738
   46      H      -8.0516153307    -0.0205871976     2.0048839895
   47      H      -6.0793751044    -1.4658999080     2.6064402716
   48      H      -5.6718320623     0.2414918531     2.6732431484
 ----------------------------------------------------------------

   94   -1077.7875578598      1.71e-09  Convergence criterion met
 Total energy in the final basis set =    -1077.7875578598
   12   -1078.0498756391      4.60e-09  Convergence criterion met
 Total energy in the final basis set =    -1078.0498756391

                    Orbital Energies (a.u.)
 --------------------------------------------------------------

 Alpha MOs
 -- Occupied --
-19.1412 -19.1139 -19.0298 -19.0228 -10.2103 -10.2059 -10.1784 -10.1763
-10.1618 -10.1568 -10.1528 -10.1526 -10.1524 -10.1506 -10.1499 -10.1496
-10.1473 -10.1450 -10.1432 -10.1423 -10.1394 -10.1394 -10.1316 -10.1227
 -1.0499  -1.0282  -0.9456  -0.9344  -0.8278  -0.8244  -0.7835  -0.7639
 -0.7385  -0.7293  -0.7263  -0.7107  -0.6786  -0.6538  -0.6287  -0.6013
 -0.5913  -0.5873  -0.5618  -0.5518  -0.5413  -0.5402  -0.5179  -0.4865
 -0.4656  -0.4593  -0.4565  -0.4547  -0.4488  -0.4430  -0.4294  -0.4254
 -0.4168  -0.4139  -0.4020  -0.3979  -0.3895  -0.3849  -0.3763  -0.3713
 -0.3667  -0.3632  -0.3592  -0.3561  -0.3467  -0.3439  -0.3366  -0.3323
 -0.3292  -0.3258  -0.3187  -0.3136  -0.3105  -0.3066  -0.3048  -0.3028
 -0.2858  -0.2824  -0.2813  -0.2323  -0.2195  -0.2157  -0.2004  -0.1890
 -0.1106

          Ground-State Mulliken Net Atomic Charges

     Atom                 Charge (a.u.)
  ----------------------------------------
      1 C                     0.803969
      2 C                    -0.908897
      3 C                    -0.516052
      4 C                     0.749392
      5 C                    -0.608951
      6 C                     0.095626
      7 C                    -0.795134
      8 C                    -0.525858
      9 C                     1.497111
     10 C                    -1.067450
     11 O                    -0.771532
     12 O                    -0.669479
     13 O                    -0.347679
     14 O                    -0.252553
     15 C                    -0.353151
     16 C                     0.148029
     17 C                    -0.609702
     18 C                    -0.718588
     19 C                     0.930735
     20 C                    -0.479388
     21 C                    -0.453086
     22 C                    -0.336250
     23 C                    -0.397218
     24 C                    -0.370286
     25 H                     0.147763
     26 H                     0.197847
     27 H                     0.167348
     28 H                     0.299540
     29 H                     0.191539
     30 H                     0.165032
     31 H                     0.163958
     32 H                     0.199543
     33 H                     0.172278
     34 H                     0.178478
     35 H                     0.160425
     36 H                     0.108104
     37 H                     0.133973
     38 H                     0.145560
     39 H                     0.143684
     40 H                     0.159312
     41 H                     0.156315
     42 H                     0.143587
     43 H                     0.181862
     44 H                     0.130731
     45 H                     0.124073
     46 H                     0.175260
     47 H                     0.170153
     48 H                     0.140029
  ----------------------------------------
  Sum of atomic charges =    -2.000000

                    Cartesian Multipole Moments
 -----------------------------------------------------------------
    Charge (ESU x 10^10)
                -9.6064
    Dipole Moment (Debye)
         X     -17.7861      Y       0.8105      Z       5.1244
       Tot      18.5273
    Quadrupole Moments (Debye-Ang)
        XX    -212.4251     XY       4.8755     YY    -202.6098
        XZ       2.8844     YZ       1.1364     ZZ    -162.5462

 Total job time:  1963.99s(wall), 15503.98s(cpu)
        *  Thank you very much for using Q-Chem.  Have a nice day.  *
