 Gaussian 16, Revision A.03,
 Gaussian 16:  ES64L-G16RevA.03 25-Dec-2016

 ----------------------------------------------------------------
 #P UB3LYP/6-311++G(d,p) SCRF=(PCM,Solvent=n,n-DiMethylFormamide)
 ----------------------------------------------------------------

 ------------------
 Radical PCM in DMF
 ------------------
 Symbolic Z-matrix:
 Charge = -1 Multiplicity = 2

                         Standard orientation:
 ---------------------------------------------------------------------
 Center     Atomic      Atomic             Coordinates (Angstroms)
 Number     Number       Type             X           Y           Z
 ---------------------------------------------------------------------
      1          6           0        2.759207   -2.000616    0.456118
      2          6           0        4.074664   -2.218366    0.083818
      3          6           0        4.811187   -1.186788   -0.524493
      4          6           0        2.145363   -0.754184    0.237453
      5          6           0        2.886209    0.284265   -0.375182
      6          6           0        4.221040    0.044814   -0.749598
      7          6           0        0.733937   -0.570018    0.654728
      8          6           0        0.202785    0.748372    0.400782
      9          6           0        0.918152    1.766707   -0.209351
     10          6           0        2.280166    1.609073   -0.630266
     11          8           0        0.079876   -1.505317    1.163596
     12          8           0        2.926577    2.534736   -1.182451
     13         16           0       -1.475866    1.121323    0.919930
     14          8           0       -1.671465    0.815414    2.344429
     15          8           0       -1.794064    2.481421    0.437965
     16          6           0       -2.550668    0.003410   -0.025907
     17          6           0       -2.813480   -1.278625    0.451978
     18          6           0       -3.123570    0.470176   -1.207216
     19          6           0       -3.666124   -2.106157   -0.276540
     20          6           0       -4.244075   -1.654502   -1.463365
     21          6           0       -3.972299   -0.367616   -1.928557
     22          1           0        2.166566   -2.776718    0.926080
     23          1           0        4.537530   -3.184353    0.260934
     24          1           0        5.842900   -1.357282   -0.817009
     25          1           0        4.763609    0.858163   -1.217441
     26          1           0        0.450514    2.728758   -0.377826
     27          1           0       -2.334298   -1.612071    1.361700
     28          1           0       -2.910657    1.479109   -1.537936
     29          1           0       -3.875601   -3.107810    0.083247
     30          1           0       -4.904678   -2.305644   -2.026642
     31          1           0       -4.424381   -0.013010   -2.848716
 ---------------------------------------------------------------------

 SCF Done:  E(UB3LYP) =  -1315.17209017     A.U. after   23 cycles

 The electronic state is 2-A.
 Alpha  occ. eigenvalues --  -89.05224 -19.11965 -19.11787 -19.09141 -19.09035
 Alpha  occ. eigenvalues --  -10.24687 -10.23551 -10.21252 -10.20351 -10.19428
 Alpha  occ. eigenvalues --  -10.19132 -10.18977 -10.18820 -10.18738 -10.18568
 Alpha  occ. eigenvalues --  -10.18452 -10.18450 -10.18134 -10.18068 -10.17842
 Alpha  occ. eigenvalues --  -10.17768  -8.11603  -6.07895  -6.07776  -6.07689
 Alpha  occ. eigenvalues --   -1.11147  -1.02191  -1.01428  -1.00714  -0.87719
 Alpha  occ. eigenvalues --   -0.86904  -0.82818  -0.78148  -0.76407  -0.75919
 Alpha  occ. eigenvalues --   -0.75827  -0.70960  -0.67203  -0.63316  -0.62506
 Alpha  occ. eigenvalues --   -0.62244  -0.59118  -0.57066  -0.54439  -0.52146
 Alpha  occ. eigenvalues --   -0.51630  -0.49523  -0.48495  -0.47781  -0.47009
 Alpha  occ. eigenvalues --   -0.45602  -0.45452  -0.44322  -0.43973  -0.43273
 Alpha  occ. eigenvalues --   -0.43009  -0.42773  -0.42012  -0.40422  -0.39506
 Alpha  occ. eigenvalues --   -0.38544  -0.38164  -0.36470  -0.36280  -0.36075
 Alpha  occ. eigenvalues --   -0.34873  -0.34399  -0.32981  -0.31511  -0.30449
 Alpha  occ. eigenvalues --   -0.29796  -0.27713  -0.27191  -0.26385  -0.26152
 Alpha  occ. eigenvalues --   -0.25758  -0.24893  -0.17194
 Alpha virt. eigenvalues --   -0.05194  -0.04110  -0.02732  -0.02617  -0.00484
 Alpha virt. eigenvalues --    0.00234   0.01014   0.01570   0.02065   0.02528
 Alpha virt. eigenvalues --    0.02962   0.03238   0.03621   0.03908   0.04632

  Beta  occ. eigenvalues --  -89.05226 -19.11952 -19.11791 -19.08618 -19.08330
  Beta  occ. eigenvalues --  -10.24586 -10.23443 -10.21252 -10.20197 -10.19421
  Beta  occ. eigenvalues --  -10.19126 -10.18970 -10.18823 -10.18741 -10.18540
  Beta  occ. eigenvalues --  -10.18438 -10.18126 -10.18124 -10.18046 -10.17841
  Beta  occ. eigenvalues --  -10.17752  -8.11605  -6.07897  -6.07777  -6.07694
  Beta  occ. eigenvalues --   -1.11123  -1.01322  -1.00675  -1.00190  -0.87709
  Beta  occ. eigenvalues --   -0.86716  -0.82264  -0.78087  -0.76398  -0.75769
  Beta  occ. eigenvalues --   -0.75683  -0.70275  -0.66764  -0.63178  -0.62386
  Beta  occ. eigenvalues --   -0.62100  -0.59022  -0.56877  -0.54351  -0.51932
  Beta  occ. eigenvalues --   -0.51470  -0.49240  -0.48437  -0.47734  -0.46898
  Beta  occ. eigenvalues --   -0.45583  -0.45402  -0.44199  -0.43920  -0.43233
  Beta  occ. eigenvalues --   -0.42506  -0.41630  -0.41439  -0.40150  -0.38838
  Beta  occ. eigenvalues --   -0.38157  -0.36752  -0.36338  -0.36071  -0.35444
  Beta  occ. eigenvalues --   -0.34782  -0.34314  -0.32918  -0.31328  -0.30345
  Beta  occ. eigenvalues --   -0.28124  -0.27237  -0.26408  -0.25819  -0.25603
  Beta  occ. eigenvalues --   -0.25217  -0.24347
  Beta virt. eigenvalues --   -0.10330  -0.04701  -0.03463  -0.02592  -0.01802
  Beta virt. eigenvalues --   -0.00472   0.00239   0.01034   0.01588   0.02076
  Beta virt. eigenvalues --    0.02579   0.03107   0.03487   0.03801   0.04455

 Mulliken charges and spin densities:
               1          2
     1  C    0.219024   0.022313
     2  C   -0.421391   0.019154
     3  C   -0.347312   0.005110
     4  C    0.149307  -0.031006
     5  C    0.412734   0.016548
     6  C    0.053769   0.023417
     7  C   -0.465197   0.067543
     8  C   -0.112280   0.107174
     9  C   -0.092550   0.242142
    10  C   -0.577227   0.089716
    11  O   -0.354987   0.198633
    12  O   -0.446140   0.256255
    13  S    0.388623  -0.022660
    14  O   -0.201882   0.006109
    15  O   -0.238070  -0.002809
    16  C    0.323862   0.004718
    17  C   -0.278481   0.015341
    18  C    0.151023   0.010427
    19  C   -0.431167  -0.006344
    20  C   -0.334657   0.005757
    21  C   -0.502883  -0.002351
    22  H    0.167353  -0.001480
    23  H    0.190607  -0.001571
    24  H    0.193652  -0.000564
    25  H    0.163394  -0.003618
    26  H    0.254688  -0.018212
    27  H    0.278322  -0.000740
    28  H    0.245234   0.001068
    29  H    0.214392   0.000122
    30  H    0.190226  -0.000319
    31  H    0.208012   0.000126
 Sum of Mulliken charges =  -1.00000   1.00000

 Dipole moment (field-independent basis, Debye):
    X=             -3.1089    Y=             -8.1232    Z=             -4.6149  Tot=              9.8463
 Quadrupole moment (field-independent basis, Debye-Ang):
   XX=           -139.9186   YY=           -152.8375   ZZ=           -145.1465
   XY=             -5.8443   XZ=             19.7751   YZ=              3.6051

 Normal termination of Gaussian 16 at Sun Jan 21 08:36:11 2024.
