 Q-Chem 5.4, Q-Chem, Inc., Pleasanton, CA (2021)
 Q-Chem 5.4.0 for Intel X86 EM64T Linux

User input:
--------------------------------------------------------------
$molecule
-1 2
O                 -1.3128890000     -2.5356770000      0.9701770000
C                 -1.1681490000     -1.3820420000      0.5004690000
C                 -2.3856890000     -0.6190100000      0.0806470000
O                 -2.4379130000     -0.1674800000     -1.2903240000
C                 -2.2876070000      0.8289820000     -0.2550240000
C                 -0.9703920000      1.5356940000     -0.1770470000
O                 -0.9519300000      2.7863880000     -0.2663300000
C                  0.1931130000      0.7020590000      0.0179120000
C                  1.4819480000      1.2908280000     -0.0533550000
C                  2.6261630000      0.5596620000      0.1676890000
C                  2.5324550000     -0.8232150000      0.4890820000
C                  1.2979440000     -1.4239580000      0.5774700000
C                  0.0978470000     -0.7040550000      0.3445350000
H                 -3.3260460000     -1.0294780000      0.4443080000
H                 -3.1566160000      1.4737200000     -0.1365660000
H                  1.5296990000      2.3482960000     -0.2894310000
H                  3.6001950000      1.0349450000      0.0971990000
H                  3.4350870000     -1.4015280000      0.6634480000
H                  1.2027780000     -2.4741290000      0.8311330000
$end
$rem
MAX_SCF_CYCLES=200
BASIS  =  6-311++G(d,p)
GUI  =  2
JOB_TYPE  =  SP
METHOD  =  B3LYP
SOLVENT_METHOD = PCM
$end
$pcm
theory = CPCM
$end
$solvent
dielectric 37.219
opticaldielectric 1.43
$end

--------------------------------------------------------------

             Standard Nuclear Orientation (Angstroms)
    I     Atom           X                Y                Z
 ----------------------------------------------------------------
    1      O      -1.3128890000    -2.5356770000     0.9701770000
    2      C      -1.1681490000    -1.3820420000     0.5004690000
    3      C      -2.3856890000    -0.6190100000     0.0806470000
    4      O      -2.4379130000    -0.1674800000    -1.2903240000
    5      C      -2.2876070000     0.8289820000    -0.2550240000
    6      C      -0.9703920000     1.5356940000    -0.1770470000
    7      O      -0.9519300000     2.7863880000    -0.2663300000
    8      C       0.1931130000     0.7020590000     0.0179120000
    9      C       1.4819480000     1.2908280000    -0.0533550000
   10      C       2.6261630000     0.5596620000     0.1676890000
   11      C       2.5324550000    -0.8232150000     0.4890820000
   12      C       1.2979440000    -1.4239580000     0.5774700000
   13      C       0.0978470000    -0.7040550000     0.3445350000
   14      H      -3.3260460000    -1.0294780000     0.4443080000
   15      H      -3.1566160000     1.4737200000    -0.1365660000
   16      H       1.5296990000     2.3482960000    -0.2894310000
   17      H       3.6001950000     1.0349450000     0.0971990000
   18      H       3.4350870000    -1.4015280000     0.6634480000
   19      H       1.2027780000    -2.4741290000     0.8311330000
 ----------------------------------------------------------------

    9    -610.6065456820      4.49e-06  Convergence criterion met
 Total energy in the final basis set =     -610.6065456820

                    Orbital Energies (a.u.)
 --------------------------------------------------------------

 Alpha MOs
 -- Occupied --
-19.1465 -19.0874 -19.0874 -10.2299 -10.2299 -10.2265 -10.2262 -10.1724
-10.1721 -10.1699 -10.1698 -10.1693 -10.1690  -1.0821  -1.0106  -1.0099
 -0.8531  -0.7734  -0.7524  -0.7007  -0.6925  -0.6282  -0.6151  -0.5622
 -0.5203  -0.5184  -0.5025  -0.4638  -0.4448  -0.4337  -0.4249  -0.4148
 -0.4131  -0.4091  -0.4087  -0.3695  -0.3532  -0.3510  -0.3390  -0.3188
 -0.2986  -0.2599  -0.2595  -0.2471  -0.2458  -0.1360

 Beta MOs
 -- Occupied --
-19.1455 -19.0824 -19.0824 -10.2276 -10.2276 -10.2266 -10.2263 -10.1709
-10.1706 -10.1698 -10.1697 -10.1686 -10.1682  -1.0808  -1.0015  -1.0010
 -0.8500  -0.7677  -0.7490  -0.6987  -0.6861  -0.6237  -0.6133  -0.5599
 -0.5167  -0.5165  -0.5011  -0.4610  -0.4399  -0.4300  -0.4236  -0.4096
 -0.4083  -0.4048  -0.3951  -0.3574  -0.3460  -0.3407  -0.3374  -0.3120
 -0.2937  -0.2509  -0.2457  -0.2423  -0.2389

          Ground-State Mulliken Net Atomic Charges

     Atom                 Charge (a.u.)    Spin (a.u.)
  --------------------------------------------------------
      1 O                    -0.483572       0.178360
      2 C                    -0.168334       0.129510
      3 C                    -0.115272      -0.002347
      4 O                    -0.198047       0.025325
      5 C                    -0.114752      -0.002436
      6 C                    -0.169183       0.129727
      7 O                    -0.483792       0.178488
      8 C                    -0.001730       0.096387
      9 C                     0.159303       0.020811
     10 C                    -0.389270       0.067810
     11 C                    -0.391081       0.067869
     12 C                     0.156399       0.020714
     13 C                    -0.008051       0.096760
     14 H                     0.236175       0.002473
     15 H                     0.236532       0.002484
     16 H                     0.171820      -0.000306
     17 H                     0.195748      -0.005659
     18 H                     0.195700      -0.005666
     19 H                     0.171408      -0.000304
  --------------------------------------------------------
  Sum of atomic charges =    -1.000000

                    Cartesian Multipole Moments
 -----------------------------------------------------------------
    Charge (ESU x 10^10)
                -4.8032
    Dipole Moment (Debye)
         X       4.5361      Y      -0.0311      Z       0.5100
       Tot       4.5647
    Quadrupole Moments (Debye-Ang)
        XX     -77.3753     XY      -3.2903     YY    -111.0781
        XZ      -3.1794     YZ       6.4801     ZZ     -85.7950

 Total job time:  26.10s(wall), 196.44s(cpu)
        *  Thank you very much for using Q-Chem.  Have a nice day.  *
