 Gaussian 16, Revision A.03,
 Gaussian 16:  ES64L-G16RevA.03 25-Dec-2016

 ----------------------------------------------------------------------
 #P UB3LYP/6-311++G(d,p) nosym opt freq SCRF=(PCM,Solvent=n,n-DiMethylF
 ormamide)
 ----------------------------------------------------------------------

 -------
 Radical
 -------
 Symbolic Z-matrix:
 Charge = -1 Multiplicity = 2

 SCF Done:  E(UB3LYP) =  -839.593934053     A.U. after   19 cycles
 SCF Done:  E(UB3LYP) =  -839.594716827     A.U. after   14 cycles
 SCF Done:  E(UB3LYP) =  -839.594823893     A.U. after   13 cycles
 SCF Done:  E(UB3LYP) =  -839.594826199     A.U. after   12 cycles
 SCF Done:  E(UB3LYP) =  -839.594826388     A.U. after   11 cycles
 SCF Done:  E(UB3LYP) =  -839.594827132     A.U. after   10 cycles
 Optimization completed.
    -- Stationary point found.
 Normal termination of Gaussian 16 at Sun Feb 11 15:40:06 2024.

 ----------------------------------------------------------------------
 #P Geom=AllCheck Guess=TCheck SCRF=Check GenChk UB3LYP/6-311++G(d,p) F
 req
 ----------------------------------------------------------------------

 Structure from the checkpoint file:  "331-rad.chk"
 -------
 Radical
 -------
 Charge = -1 Multiplicity = 2

                          Input orientation:
 ---------------------------------------------------------------------
 Center     Atomic      Atomic             Coordinates (Angstroms)
 Number     Number       Type             X           Y           Z
 ---------------------------------------------------------------------
      1          6           0       -1.861760    3.496218   -0.947930
      2          6           0       -2.970825    2.907455   -0.367611
      3          6           0       -0.631749    2.810966   -1.020771
      4          6           0       -0.523641    1.498418   -0.491359
      5          6           0       -2.879341    1.610521    0.158301
      6          6           0       -1.674463    0.930963    0.091516
      7          6           0        0.507934    3.496414   -1.654237
      8          6           0        1.788999    2.781426   -1.741960
      9          6           0        1.871320    1.423948   -1.176297
     10          6           0        0.756450    0.791313   -0.566947
     11          6           0        3.105948    0.747373   -1.251063
     12          6           0        3.249895   -0.528963   -0.737839
     13          6           0        2.157188   -1.166576   -0.132464
     14          6           0        0.940888   -0.508752   -0.055083
     15          8           0        0.381145    4.667191   -2.109554
     16          8           0        2.797411    3.312930   -2.284777
     17          8           0        4.433930   -1.224867   -0.788780
     18          8           0       -4.188635    3.537800   -0.275299
     19          1           0       -1.913347    4.497801   -1.360320
     20          1           0       -3.751482    1.153551    0.611008
     21          1           0       -1.636547   -0.068371    0.506008
     22          1           0        3.939396    1.256736   -1.721879
     23          1           0        2.275567   -2.166356    0.268605
     24          1           0        0.117341   -1.027477    0.418814
     25          1           0        5.106487   -0.688965   -1.226139
     26          1           0       -4.129821    4.416902   -0.668386
 ---------------------------------------------------------------------

 SCF Done:  E(UB3LYP) =  -839.594827132     A.U. after    1 cycles

 Alpha  occ. eigenvalues --  -19.15697 -19.15695 -19.07625 -19.07622 -10.23573
 Alpha  occ. eigenvalues --  -10.23573 -10.21697 -10.21664 -10.18245 -10.18212
 Alpha  occ. eigenvalues --  -10.17760 -10.17758 -10.17716 -10.17713 -10.17343
 Alpha  occ. eigenvalues --  -10.17341 -10.16859 -10.16856  -1.06526  -1.06522
 Alpha  occ. eigenvalues --   -1.01046  -0.98135  -0.87369  -0.84691  -0.78538
 Alpha  occ. eigenvalues --   -0.76508  -0.75230  -0.71859  -0.69067  -0.64123
 Alpha  occ. eigenvalues --   -0.62322  -0.59732  -0.59507  -0.55717  -0.54748
 Alpha  occ. eigenvalues --   -0.51696  -0.48840  -0.48297  -0.45990  -0.45820
 Alpha  occ. eigenvalues --   -0.43917  -0.43366  -0.43012  -0.41685  -0.41538
 Alpha  occ. eigenvalues --   -0.41237  -0.40456  -0.39930  -0.39844  -0.38033
 Alpha  occ. eigenvalues --   -0.36105  -0.36092  -0.35336  -0.35310  -0.33534
 Alpha  occ. eigenvalues --   -0.31992  -0.26563  -0.26169  -0.25699  -0.25589
 Alpha  occ. eigenvalues --   -0.22914  -0.20606  -0.15589
 Alpha virt. eigenvalues --   -0.03447  -0.03212  -0.00464  -0.00000   0.00425
 Alpha virt. eigenvalues --    0.00785   0.01902   0.02327   0.02990   0.03882
 Alpha virt. eigenvalues --    0.04225   0.04749   0.04777   0.06410   0.06693

  Beta  occ. eigenvalues --  -19.15703 -19.15701 -19.06988 -19.06985 -10.23602
  Beta  occ. eigenvalues --  -10.23601 -10.21492 -10.21461 -10.18174 -10.18141
  Beta  occ. eigenvalues --  -10.17799 -10.17797 -10.17738 -10.17734 -10.17260
  Beta  occ. eigenvalues --  -10.17258 -10.16772 -10.16769  -1.06538  -1.06533
  Beta  occ. eigenvalues --   -0.99929  -0.96942  -0.87211  -0.84599  -0.78266
  Beta  occ. eigenvalues --   -0.76298  -0.75063  -0.71809  -0.68260  -0.64042
  Beta  occ. eigenvalues --   -0.62120  -0.59350  -0.59339  -0.55651  -0.54703
  Beta  occ. eigenvalues --   -0.51585  -0.48470  -0.48176  -0.45918  -0.45619
  Beta  occ. eigenvalues --   -0.43886  -0.43266  -0.42320  -0.41452  -0.41250
  Beta  occ. eigenvalues --   -0.41175  -0.39706  -0.39420  -0.39174  -0.38006
  Beta  occ. eigenvalues --   -0.36013  -0.35203  -0.34993  -0.34030  -0.33415
  Beta  occ. eigenvalues --   -0.30339  -0.25837  -0.25487  -0.24952  -0.24708
  Beta  occ. eigenvalues --   -0.22326  -0.20274
  Beta virt. eigenvalues --   -0.08814  -0.03115  -0.02236  -0.00455  -0.00003
  Beta virt. eigenvalues --    0.00781   0.01718   0.01940   0.02330   0.03283
  Beta virt. eigenvalues --    0.03898   0.04249   0.04752   0.04818   0.06417

 Mulliken charges and spin densities:
               1          2
     1  C    0.143882   0.089389
     2  C   -0.495234  -0.025413
     3  C    0.706211  -0.013421
     4  C    0.533920   0.039341
     5  C   -0.475094   0.067373
     6  C   -0.341745  -0.028223
     7  C   -0.561253   0.140068
     8  C   -0.560667   0.140139
     9  C    0.706823  -0.013350
    10  C    0.533757   0.039316
    11  C    0.143747   0.089335
    12  C   -0.496051  -0.025408
    13  C   -0.474950   0.067318
    14  C   -0.342314  -0.028209
    15  O   -0.485417   0.241698
    16  O   -0.485484   0.241690
    17  O   -0.294418  -0.000523
    18  O   -0.294508  -0.000527
    19  H    0.150307  -0.007687
    20  H    0.208460  -0.004752
    21  H    0.107228   0.002135
    22  H    0.150210  -0.007686
    23  H    0.208519  -0.004748
    24  H    0.107205   0.002134
    25  H    0.303422   0.000005
    26  H    0.303440   0.000005
 Sum of Mulliken charges =  -1.00000   1.00000

 Dipole moment (field-independent basis, Debye):
    X=             -6.2813    Y=            -16.5452    Z=              9.0153  Tot=             19.8614
 Quadrupole moment (field-independent basis, Debye-Ang):
   XX=           -123.2839   YY=           -174.5967   ZZ=           -129.4543
   XY=            -23.1772   XZ=             13.9494   YZ=             34.6471

  Exact polarizability: 410.049 -73.260 328.480 -52.823 -64.449 171.736
 Approx polarizability: 447.187 -66.353 376.424 -61.150 -78.739 199.901

                      1                      2                      3
                      A                      A                      A
 Frequencies --     55.2002                64.9952               109.2603
 Red. masses --      6.0510                 7.0402                 5.0816
 Frc consts  --      0.0109                 0.0175                 0.0357
 IR Inten    --      3.2279                 0.0071                 0.0119

                      4                      5                      6
                      A                      A                      A
 Frequencies --    145.1142               175.5554               187.5148
 Red. masses --      6.4989                 6.7187                 7.3361
 Frc consts  --      0.0806                 0.1220                 0.1520
 IR Inten    --      9.3257                 4.6006                 0.0447

                      7                      8                      9
                      A                      A                      A
 Frequencies --    262.0605               271.3323               309.1815
 Red. masses --      8.5632                 5.0878                 7.2554
 Frc consts  --      0.3465                 0.2207                 0.4086
 IR Inten    --     25.1869                 5.2039                 0.1739

                     10                     11                     12
                      A                      A                      A
 Frequencies --    324.7645               326.9986               384.7890
 Red. masses --      1.0917                 1.1551                 6.9942
 Frc consts  --      0.0678                 0.0728                 0.6101
 IR Inten    --      3.2146               338.2996                 0.0592

                     13                     14                     15
                      A                      A                      A
 Frequencies --    387.5103               387.9778               400.1923
 Red. masses --      5.4678                 4.5525                14.0509
 Frc consts  --      0.4838                 0.4038                 1.3258
 IR Inten    --      0.0188                 0.0036                 6.8210

                     16                     17                     18
                      A                      A                      A
 Frequencies --    421.8280               429.1321               449.6268
 Red. masses --      6.0665                 6.4717                 4.1536
 Frc consts  --      0.6360                 0.7022                 0.4947
 IR Inten    --     39.8730                 4.3747                 0.0120

                     19                     20                     21
                      A                      A                      A
 Frequencies --    483.3910               493.8239               531.8602
 Red. masses --      3.5997                 5.7884                 8.2009
 Frc consts  --      0.4956                 0.8317                 1.3668
 IR Inten    --     40.7885                 0.2344                54.8646

                     22                     23                     24
                      A                      A                      A
 Frequencies --    586.0864               623.9980               648.9079
 Red. masses --      3.3208                 5.2505                 5.4940
 Frc consts  --      0.6721                 1.2045                 1.3630
 IR Inten    --      0.0037                 0.2717                 0.3575

                     25                     26                     27
                      A                      A                      A
 Frequencies --    673.8994               693.3724               696.3297
 Red. masses --      7.5901                 5.7716                 5.1298
 Frc consts  --      2.0309                 1.6349                 1.4655
 IR Inten    --      4.1684                 2.3115                 0.0023

                     28                     29                     30
                      A                      A                      A
 Frequencies --    706.3151               717.1950               756.8579
 Red. masses --      4.2855                 7.7499                 9.4751
 Frc consts  --      1.2597                 2.3487                 3.1979
 IR Inten    --     16.3554                 0.2912                 0.0090

                     31                     32                     33
                      A                      A                      A
 Frequencies --    811.4737               814.4474               828.1817
 Red. masses --      1.5102                 1.4250                 8.8156
 Frc consts  --      0.5859                 0.5569                 3.5625
 IR Inten    --      0.0071                89.2104               269.5584

                     34                     35                     36
                      A                      A                      A
 Frequencies --    879.0718               879.6280               913.8091
 Red. masses --      1.4581                 1.4561                 7.0359
 Frc consts  --      0.6639                 0.6638                 3.4617
 IR Inten    --     38.3272                36.2171                23.0515

                     37                     38                     39
                      A                      A                      A
 Frequencies --    942.0756               957.4974              1003.5330
 Red. masses --      1.3346                 1.2958                 4.0545
 Frc consts  --      0.6979                 0.6999                 2.4058
 IR Inten    --      0.0047                 1.8206                16.6708

                     40                     41                     42
                      A                      A                      A
 Frequencies --   1016.2022              1070.5673              1134.2322
 Red. masses --      3.7731                 2.3942                 1.9156
 Frc consts  --      2.2957                 1.6167                 1.4520
 IR Inten    --      2.0809                 2.6814                 2.3381

                     43                     44                     45
                      A                      A                      A
 Frequencies --   1138.3860              1176.4425              1179.1155
 Red. masses --      1.4576                 1.4963                 1.8235
 Frc consts  --      1.1129                 1.2202                 1.4937
 IR Inten    --     26.1412                10.2588               944.2591

                     46                     47                     48
                      A                      A                      A
 Frequencies --   1185.5338              1217.0197              1235.8724
 Red. masses --      1.5819                 2.9086                 1.8325
 Frc consts  --      1.3099                 2.5382                 1.6491
 IR Inten    --      4.6994                 3.4572                17.7945

                     49                     50                     51
                      A                      A                      A
 Frequencies --   1260.7282              1289.0172              1310.7484
 Red. masses --      2.2832                 4.3753                 2.3701
 Frc consts  --      2.1382                 4.2833                 2.3991
 IR Inten    --    257.2976                 0.8565                 0.6890

                     52                     53                     54
                      A                      A                      A
 Frequencies --   1332.0852              1351.3622              1366.9370
 Red. masses --      3.5347                 6.7828                 2.8082
 Frc consts  --      3.6954                 7.2980                 3.0915
 IR Inten    --      3.0051                50.3250                21.5059

                     55                     56                     57
                      A                      A                      A
 Frequencies --   1437.8678              1439.5070              1496.6305
 Red. masses --      3.0171                 3.5533                 6.6950
 Frc consts  --      3.6752                 4.3382                 8.8354
 IR Inten    --     31.1571                63.5514               876.6491

                     58                     59                     60
                      A                      A                      A
 Frequencies --   1502.0752              1505.3995              1549.9939
 Red. masses --      5.3146                 2.7938                 5.3362
 Frc consts  --      7.0649                 3.7304                 7.5534
 IR Inten    --    747.4961               645.7597               500.6392

                     61                     62                     63
                      A                      A                      A
 Frequencies --   1596.7468              1611.6826              1630.8789
 Red. masses --      5.6225                 6.7337                 5.8106
 Frc consts  --      8.4460                10.3053                 9.1057
 IR Inten    --     12.0088                 8.5649                 2.0355

                     64                     65                     66
                      A                      A                      A
 Frequencies --   1633.0257              3173.6139              3174.7497
 Red. masses --      6.6591                 1.0897                 1.0893
 Frc consts  --     10.4629                 6.4663                 6.4687
 IR Inten    --    401.0332                33.5556                22.7645

                     67                     68                     69
                      A                      A                      A
 Frequencies --   3175.5242              3181.2499              3191.3556
 Red. masses --      1.0878                 1.0885                 1.0951
 Frc consts  --      6.4629                 6.4904                 6.5714
 IR Inten    --      0.4892                 1.0064                 6.1910

                     70                     71                     72
                      A                      A                      A
 Frequencies --   3201.9970              3809.7144              3810.0773
 Red. masses --      1.0910                 1.0662                 1.0663
 Frc consts  --      6.5907                 9.1178                 9.1200
 IR Inten    --     44.2948               190.5679               102.3183

 - Thermochemistry -
 -------------------
 Temperature   298.150 Kelvin.  Pressure   1.00000 Atm.
 Atom     1 has atomic number  6 and mass  12.00000

 Molecular mass:   240.04226 amu.
 Principal axes and moments of inertia in atomic units:
                           1         2         3
     Eigenvalues --  2171.632466321.029978492.56676
           X            0.87403   0.40760   0.26445
           Y           -0.48304   0.78769   0.38239
           Z           -0.05244  -0.46196   0.88535
 This molecule is an asymmetric top.
 Rotational symmetry number  1.
 Warning -- assumption of classical behavior for rotation
           may cause significant error
 Rotational temperatures (Kelvin)      0.03988     0.01370     0.01020
 Rotational constants (GHZ):           0.83105     0.28551     0.21251
 Zero-point vibrational energy     485212.1 (Joules/Mol)
                                  115.96848 (Kcal/Mol)
 Warning -- explicit consideration of  22 degrees of freedom as
           vibrations may cause significant error
 Vibrational temperatures:     79.42    93.51   157.20   208.79   252.58
          (Kelvin)            269.79   377.05   390.39   444.84   467.26
                              470.48   553.63   557.54   558.21   575.79
                              606.92   617.43   646.91   695.49   710.50
                              765.23   843.25   897.79   933.63   969.59
                              997.61  1001.86  1016.23  1031.88  1088.95
                             1167.53  1171.81  1191.57  1264.79  1265.59
                             1314.77  1355.44  1377.63  1443.86  1462.09
                             1540.31  1631.91  1637.88  1692.64  1696.48
                             1705.72  1751.02  1778.14  1813.91  1854.61
                             1885.87  1916.57  1944.31  1966.72  2068.77
                             2071.13  2153.32  2161.15  2165.93  2230.10
                             2297.36  2318.85  2346.47  2349.56  4566.12
                             4567.76  4568.87  4577.11  4591.65  4606.96
                             5481.33  5481.85

 Zero-point correction=                           0.184808 (Hartree/Particle)
 Thermal correction to Energy=                    0.198631
 Thermal correction to Enthalpy=                  0.199575
 Thermal correction to Gibbs Free Energy=         0.143901
 Sum of electronic and zero-point Energies=           -839.410020
 Sum of electronic and thermal Energies=              -839.396196
 Sum of electronic and thermal Enthalpies=            -839.395252
 Sum of electronic and thermal Free Energies=         -839.450926

                     E (Thermal)             CV                S
                      KCal/Mol        Cal/Mol-Kelvin    Cal/Mol-Kelvin
 Total                  124.643             55.972            117.176
 Electronic               0.000              0.000              1.377
 Translational            0.889              2.981             42.328
 Rotational               0.889              2.981             33.122
 Vibrational            122.865             50.010             40.349
 Vibration     1          0.596              1.975              4.622
 Vibration     2          0.597              1.971              4.299
 Vibration     3          0.606              1.942              3.282
 Vibration     4          0.617              1.908              2.735
 Vibration     5          0.628              1.872              2.375
 Vibration     6          0.632              1.857              2.252
 Vibration     7          0.669              1.742              1.648
 Vibration     8          0.675              1.726              1.588
 Vibration     9          0.699              1.656              1.367
 Vibration    10          0.709              1.626              1.286
 Vibration    11          0.711              1.622              1.275
 Vibration    12          0.754              1.503              1.020
 Vibration    13          0.756              1.497              1.010
 Vibration    14          0.756              1.496              1.008
 Vibration    15          0.766              1.470              0.962
 Vibration    16          0.784              1.423              0.886
 Vibration    17          0.790              1.407              0.861
 Vibration    18          0.809              1.362              0.797
 Vibration    19          0.840              1.287              0.701
 Vibration    20          0.849              1.264              0.674
 Vibration    21          0.887              1.180              0.583
 Vibration    22          0.943              1.061              0.474

 Optimization completed.
    -- Stationary point found.
 Normal termination of Gaussian 16 at Sun Feb 11 16:38:01 2024.
