 Q-Chem 5.4, Q-Chem, Inc., Pleasanton, CA (2021)
 Q-Chem 5.4.0 for Intel X86 EM64T Linux

User input:
--------------------------------------------------------------
$molecule
-2 1
Cl                -2.6811650000     -1.7227530000     -0.0124210000
C                 -1.1499090000     -0.7542960000     -0.0049120000
C                 -1.2827100000      0.6269030000     -0.0378820000
C                 -0.1693310000      1.5295360000     -0.0367830000
O                 -0.2963890000      2.8098910000     -0.0675720000
C                  1.0777990000      0.8200000000      0.0021980000
C                  1.1826190000     -0.5828360000      0.0351080000
Cl                 2.7938300000     -1.3575840000      0.0822690000
C                  0.0717300000     -1.5016340000      0.0345840000
O                  0.1704080000     -2.7763900000      0.0643920000
Cl                 2.5538380000      1.8348290000      0.0074000000
H                 -2.2707200000      1.0743350000     -0.0663820000
$end
$rem
MAX_SCF_CYCLES=200
BASIS  =  6-311++G(d,p)
GUI  =  2
JOB_TYPE  =  SP
METHOD  =  B3LYP
SOLVENT_METHOD = PCM
$end
$pcm
theory = CPCM
$end
$solvent
dielectric 37.219
opticaldielectric 1.43
$end

--------------------------------------------------------------

             Standard Nuclear Orientation (Angstroms)
    I     Atom           X                Y                Z
 ----------------------------------------------------------------
    1      Cl     -2.6811650000    -1.7227530000    -0.0124210000
    2      C      -1.1499090000    -0.7542960000    -0.0049120000
    3      C      -1.2827100000     0.6269030000    -0.0378820000
    4      C      -0.1693310000     1.5295360000    -0.0367830000
    5      O      -0.2963890000     2.8098910000    -0.0675720000
    6      C       1.0777990000     0.8200000000     0.0021980000
    7      C       1.1826190000    -0.5828360000     0.0351080000
    8      Cl      2.7938300000    -1.3575840000     0.0822690000
    9      C       0.0717300000    -1.5016340000     0.0345840000
   10      O       0.1704080000    -2.7763900000     0.0643920000
   11      Cl      2.5538380000     1.8348290000     0.0074000000
   12      H      -2.2707200000     1.0743350000    -0.0663820000
 ----------------------------------------------------------------

    9   -1760.7226062168      4.01e-06  Convergence criterion met
 Total energy in the final basis set =    -1760.7226062168

                    Orbital Energies (a.u.)
 --------------------------------------------------------------

 Alpha MOs
 -- Occupied --
********-101.5364-101.5335 -19.0369 -19.0336 -10.2075 -10.2045 -10.2038
-10.2012 -10.1991 -10.1468  -9.4518  -9.4507  -9.4477  -7.2160  -7.2149
 -7.2117  -7.2072  -7.2064  -7.2061  -7.2052  -7.2031  -7.2025  -0.9611
 -0.9518  -0.8640  -0.8417  -0.8229  -0.7749  -0.6900  -0.6676  -0.5691
 -0.5470  -0.4756  -0.4520  -0.4279  -0.4027  -0.4015  -0.3830  -0.3671
 -0.3608  -0.3536  -0.3419  -0.3137  -0.3127  -0.3061  -0.3000  -0.2892
 -0.2430  -0.2214  -0.2200  -0.2165  -0.1407

          Ground-State Mulliken Net Atomic Charges

     Atom                 Charge (a.u.)
  ----------------------------------------
      1 Cl                    0.114023
      2 C                     1.214805
      3 C                    -0.848782
      4 C                    -1.021116
      5 O                    -0.667350
      6 C                     0.373594
      7 C                     0.491638
      8 Cl                    0.221896
      9 C                    -1.659499
     10 O                    -0.601602
     11 Cl                    0.207694
     12 H                     0.174699
  ----------------------------------------
  Sum of atomic charges =    -2.000000

                    Cartesian Multipole Moments
 -----------------------------------------------------------------
    Charge (ESU x 10^10)
                -9.6064
    Dipole Moment (Debye)
         X      -1.8204      Y       0.8990      Z      -0.0535
       Tot       2.0310
    Quadrupole Moments (Debye-Ang)
        XX    -110.7867     XY      -1.6847     YY    -155.3679
        XZ      -0.3361     YZ       1.3887     ZZ     -90.9365

 Total job time:  23.15s(wall), 80.65s(cpu)
        *  Thank you very much for using Q-Chem.  Have a nice day.  *
