 Gaussian 16, Revision A.03,
 Gaussian 16:  ES64L-G16RevA.03 25-Dec-2016

 ----------------------------------------------------------------------
 #P UB3LYP/6-311++G(d,p) nosym opt freq SCRF=(PCM,Solvent=n,n-DiMethylF
 ormamide)
 ----------------------------------------------------------------------

 -------
 Radical
 -------
 Symbolic Z-matrix:
 Charge = -1 Multiplicity = 2

 SCF Done:  E(UB3LYP) =  -878.478651370     A.U. after   17 cycles
 SCF Done:  E(UB3LYP) =  -878.478984751     A.U. after   13 cycles
 SCF Done:  E(UB3LYP) =  -878.479171535     A.U. after   14 cycles
 SCF Done:  E(UB3LYP) =  -878.479192421     A.U. after   13 cycles
 SCF Done:  E(UB3LYP) =  -878.479210543     A.U. after   11 cycles
 SCF Done:  E(UB3LYP) =  -878.479214117     A.U. after   11 cycles
 SCF Done:  E(UB3LYP) =  -878.479217478     A.U. after   11 cycles
 SCF Done:  E(UB3LYP) =  -878.479219667     A.U. after   11 cycles
 SCF Done:  E(UB3LYP) =  -878.479221556     A.U. after   11 cycles
 SCF Done:  E(UB3LYP) =  -878.479223053     A.U. after   11 cycles
 SCF Done:  E(UB3LYP) =  -878.479224507     A.U. after   12 cycles
 SCF Done:  E(UB3LYP) =  -878.479225759     A.U. after   11 cycles
 SCF Done:  E(UB3LYP) =  -878.479226466     A.U. after   10 cycles
 SCF Done:  E(UB3LYP) =  -878.479226681     A.U. after   10 cycles
 SCF Done:  E(UB3LYP) =  -878.479226714     A.U. after    9 cycles
 Optimization completed.
    -- Stationary point found.
 Normal termination of Gaussian 16 at Sat Feb 10 18:15:18 2024.

 ----------------------------------------------------------------------
 #P Geom=AllCheck Guess=TCheck SCRF=Check GenChk UB3LYP/6-311++G(d,p) F
 req
 ----------------------------------------------------------------------

 Structure from the checkpoint file:  "172-rad.chk"
 -------
 Radical
 -------
 Charge = -1 Multiplicity = 2

                          Input orientation:
 ---------------------------------------------------------------------
 Center     Atomic      Atomic             Coordinates (Angstroms)
 Number     Number       Type             X           Y           Z
 ---------------------------------------------------------------------
      1          6           0       -1.403313    1.998773   -4.735606
      2          6           0       -1.449499    0.647142   -5.013791
      3          6           0       -1.351243   -0.290225   -3.963027
      4          6           0       -1.258823    2.470471   -3.409785
      5          6           0       -1.160155    1.528645   -2.354222
      6          6           0       -1.209186    0.148877   -2.661740
      7          6           0       -1.212137    3.904710   -3.151952
      8          6           0       -1.008026    1.956238   -0.968691
      9          6           0       -1.068917    4.344037   -1.779070
     10          6           0       -0.968078    3.378420   -0.697110
     11          6           0       -1.005818    5.754179   -1.476890
     12          6           0       -0.810288    6.152730   -0.148138
     13          6           0       -0.714560    5.227416    0.888912
     14          6           0       -0.807825    3.848699    0.658267
     15          8           0       -1.293820    4.713295   -4.143737
     16          8           0       -0.911065    1.062699   -0.054151
     17          1           0       -1.476978    2.730432   -5.530479
     18          1           0       -1.561259    0.304811   -6.037140
     19          1           0       -1.387570   -1.352725   -4.179102
     20          1           0       -1.132461   -0.556437   -1.843717
     21          1           0       -0.574569    5.592671    1.898165
     22          1           0       -0.741702    7.206489    0.089612
     23          7           0       -1.145759    6.694943   -2.469301
     24          7           0       -0.758449    2.965028    1.709738
     25          6           0       -0.911376    8.107437   -2.273397
     26          6           0       -0.431361    3.347467    3.064270
     27          1           0       -1.177424    6.296194   -3.405975
     28          1           0       -0.731646    1.988721    1.420789
     29          1           0        0.096698    8.321236   -1.889934
     30          1           0       -1.631840    8.552449   -1.576150
     31          1           0       -1.023042    8.611676   -3.233845
     32          1           0       -1.181911    4.021509    3.495211
     33          1           0        0.545342    3.846613    3.140373
     34          1           0       -0.400838    2.447162    3.678747
 ---------------------------------------------------------------------

 SCF Done:  E(UB3LYP) =  -878.479226714     A.U. after    1 cycles

 Alpha  occ. eigenvalues --  -19.06805 -19.06804 -14.30456 -14.30443 -10.21862
 Alpha  occ. eigenvalues --  -10.21859 -10.20407 -10.20399 -10.19078 -10.19072
 Alpha  occ. eigenvalues --  -10.16964 -10.16916 -10.16812 -10.16778 -10.16775
 Alpha  occ. eigenvalues --  -10.16734 -10.16639 -10.16633 -10.15908 -10.15854
 Alpha  occ. eigenvalues --   -0.99288  -0.98992  -0.92402  -0.91840  -0.85390
 Alpha  occ. eigenvalues --   -0.82523  -0.77794  -0.74650  -0.73921  -0.73619
 Alpha  occ. eigenvalues --   -0.69001  -0.66858  -0.65758  -0.62437  -0.61360
 Alpha  occ. eigenvalues --   -0.57661  -0.56251  -0.52978  -0.52022  -0.49968
 Alpha  occ. eigenvalues --   -0.49445  -0.47177  -0.45722  -0.45483  -0.45097
 Alpha  occ. eigenvalues --   -0.43928  -0.43297  -0.42713  -0.41991  -0.41158
 Alpha  occ. eigenvalues --   -0.40803  -0.40772  -0.39547  -0.38251  -0.38021
 Alpha  occ. eigenvalues --   -0.37201  -0.37038  -0.36459  -0.36041  -0.34280
 Alpha  occ. eigenvalues --   -0.33654  -0.33191  -0.31254  -0.26379  -0.25248
 Alpha  occ. eigenvalues --   -0.24963  -0.23975  -0.23819  -0.23179  -0.17957
 Alpha  occ. eigenvalues --   -0.12974
 Alpha virt. eigenvalues --   -0.04079  -0.01764  -0.00503   0.00255   0.00428
 Alpha virt. eigenvalues --    0.01731   0.01882   0.01911   0.02739   0.03157
 Alpha virt. eigenvalues --    0.03536   0.04273   0.04370   0.04985   0.05246

  Beta  occ. eigenvalues --  -19.06376 -19.06375 -14.30358 -14.30345 -10.21695
  Beta  occ. eigenvalues --  -10.21693 -10.20355 -10.20346 -10.19083 -10.19077
  Beta  occ. eigenvalues --  -10.16923 -10.16875 -10.16831 -10.16795 -10.16711
  Beta  occ. eigenvalues --  -10.16674 -10.16634 -10.16623 -10.15763 -10.15708
  Beta  occ. eigenvalues --   -0.98562  -0.98242  -0.92175  -0.91629  -0.85199
  Beta  occ. eigenvalues --   -0.82334  -0.77406  -0.74457  -0.73763  -0.73449
  Beta  occ. eigenvalues --   -0.68957  -0.66464  -0.65278  -0.62288  -0.61182
  Beta  occ. eigenvalues --   -0.57542  -0.56095  -0.52768  -0.51910  -0.49802
  Beta  occ. eigenvalues --   -0.49356  -0.46940  -0.45614  -0.45357  -0.44991
  Beta  occ. eigenvalues --   -0.43641  -0.43123  -0.42594  -0.41961  -0.40628
  Beta  occ. eigenvalues --   -0.40433  -0.40322  -0.39447  -0.38121  -0.37913
  Beta  occ. eigenvalues --   -0.36871  -0.36136  -0.35942  -0.35553  -0.34136
  Beta  occ. eigenvalues --   -0.33081  -0.32540  -0.30503  -0.24929  -0.24659
  Beta  occ. eigenvalues --   -0.23968  -0.23605  -0.23417  -0.22804  -0.16618
  Beta virt. eigenvalues --   -0.07933  -0.03211  -0.00794  -0.00490   0.00259
  Beta virt. eigenvalues --    0.00436   0.01856   0.01886   0.02446   0.02752
  Beta virt. eigenvalues --    0.03225   0.03547   0.04292   0.04405   0.05003

 Mulliken charges and spin densities:
               1          2
     1  C   -0.019426   0.021455
     2  C   -0.474748   0.033594
     3  C   -0.475908   0.033817
     4  C    0.234005   0.033747
     5  C    0.233635   0.033733
     6  C   -0.017605   0.021249
     7  C   -0.310054   0.087660
     8  C   -0.306038   0.087590
     9  C    0.257011  -0.018082
    10  C    0.253529  -0.017984
    11  C   -0.176314   0.042633
    12  C   -0.199986   0.110721
    13  C   -0.196358   0.110670
    14  C   -0.178742   0.042285
    15  O   -0.489807   0.156020
    16  O   -0.489943   0.155884
    17  H    0.167357  -0.000620
    18  H    0.176011  -0.002704
    19  H    0.176091  -0.002718
    20  H    0.167371  -0.000607
    21  H    0.179591  -0.008089
    22  H    0.179252  -0.008092
    23  N   -0.301039   0.043854
    24  N   -0.302920   0.043958
    25  C   -0.387808  -0.004125
    26  C   -0.386549  -0.004181
    27  H    0.385645  -0.003749
    28  H    0.386272  -0.003746
    29  H    0.153970   0.004858
    30  H    0.147802   0.003216
    31  H    0.156813  -0.000158
    32  H    0.147958   0.003265
    33  H    0.153911   0.004828
    34  H    0.157024  -0.000178
 Sum of Mulliken charges =  -1.00000   1.00000

 Dipole moment (field-independent basis, Debye):
    X=              6.0166    Y=            -13.0775    Z=             10.7396  Tot=             17.9599
 Quadrupole moment (field-independent basis, Debye-Ang):
   XX=           -134.7589   YY=           -160.9267   ZZ=           -152.5763
   XY=             19.1292   XZ=            -12.3175   YZ=             42.1837

  Exact polarizability: 176.936  17.606 543.941  41.288  79.458 520.324
 Approx polarizability: 199.580  13.054 569.297  40.805  49.391 552.931

                      1                      2                      3
                      A                      A                      A
 Frequencies --     38.9275                54.6565                62.2502
 Red. masses --      4.2316                 3.9365                 4.1464
 Frc consts  --      0.0038                 0.0069                 0.0095
 IR Inten    --     23.7418                 1.2180                 6.4733

                      4                      5                      6
                      A                      A                      A
 Frequencies --     65.0329                90.8947               126.8005
 Red. masses --      4.5100                 3.6799                 4.7752
 Frc consts  --      0.0112                 0.0179                 0.0452
 IR Inten    --     15.7327                 3.2533                 1.6307

                      7                      8                      9
                      A                      A                      A
 Frequencies --    176.8912               180.2469               186.6620
 Red. masses --      4.0944                 5.4527                 3.3283
 Frc consts  --      0.0755                 0.1044                 0.0683
 IR Inten    --      3.2405                 2.1663                 5.6554

                     10                     11                     12
                      A                      A                      A
 Frequencies --    206.4616               227.7162               266.1951
 Red. masses --      1.0836                 1.1646                 5.6006
 Frc consts  --      0.0272                 0.0356                 0.2338
 IR Inten    --      0.0055                 1.9144                 6.0356

                     13                     14                     15
                      A                      A                      A
 Frequencies --    295.6141               324.9268               329.4748
 Red. masses --      4.0684                 4.4980                 4.9503
 Frc consts  --      0.2095                 0.2798                 0.3166
 IR Inten    --      8.5680                 9.1598                 2.3093

                     16                     17                     18
                      A                      A                      A
 Frequencies --    365.5041               392.0547               395.1853
 Red. masses --      4.8777                 6.3852                 9.9855
 Frc consts  --      0.3839                 0.5783                 0.9188
 IR Inten    --      3.4082                 8.9212                 0.8714

                     19                     20                     21
                      A                      A                      A
 Frequencies --    420.4693               434.5193               439.4713
 Red. masses --      6.7063                 4.2325                 6.7062
 Frc consts  --      0.6986                 0.4708                 0.7631
 IR Inten    --      0.0509                10.0750                27.6425

                     22                     23                     24
                      A                      A                      A
 Frequencies --    477.0476               503.8085               515.8532
 Red. masses --      9.1268                 4.5171                 6.1969
 Frc consts  --      1.2237                 0.6755                 0.9716
 IR Inten    --     55.8038                 1.4893                18.7898

                     25                     26                     27
                      A                      A                      A
 Frequencies --    573.5485               598.3849               621.0285
 Red. masses --      3.2285                 3.2204                 1.7148
 Frc consts  --      0.6257                 0.6794                 0.3897
 IR Inten    --     65.8989                30.7594                19.7905

                     28                     29                     30
                      A                      A                      A
 Frequencies --    634.7792               640.1818               652.4631
 Red. masses --      2.7904                 1.3355                 2.7994
 Frc consts  --      0.6625                 0.3225                 0.7022
 IR Inten    --     81.2422               177.7663                22.0113

                     31                     32                     33
                      A                      A                      A
 Frequencies --    671.9002               724.4950               726.4052
 Red. masses --      3.8658                 2.1001                 5.9299
 Frc consts  --      1.0283                 0.6495                 1.8435
 IR Inten    --     40.5162                96.4780                 0.4252

                     34                     35                     36
                      A                      A                      A
 Frequencies --    738.2609               761.1962               789.2587
 Red. masses --      5.7195                 3.8906                 1.7100
 Frc consts  --      1.8366                 1.3282                 0.6276
 IR Inten    --      0.8502                32.9457                91.6193

                     37                     38                     39
                      A                      A                      A
 Frequencies --    795.2038               800.1603               853.8482
 Red. masses --      5.7571                 2.1338                 6.1062
 Frc consts  --      2.1449                 0.8049                 2.6229
 IR Inten    --      0.1256                16.1540                28.7141

                     40                     41                     42
                      A                      A                      A
 Frequencies --    880.6413               885.4153               890.2764
 Red. masses --      1.4712                 6.8622                 1.3568
 Frc consts  --      0.6722                 3.1696                 0.6336
 IR Inten    --      0.1924               100.1616                 1.0679

                     43                     44                     45
                      A                      A                      A
 Frequencies --    942.9081               985.8451               997.7126
 Red. masses --      5.2658                 1.3678                 1.2834
 Frc consts  --      2.7584                 0.7832                 0.7527
 IR Inten    --     23.8424                 2.6312                 0.1179

                     46                     47                     48
                      A                      A                      A
 Frequencies --   1018.9248              1042.1244              1103.6102
 Red. masses --      4.5614                 2.0258                 1.9101
 Frc consts  --      2.7902                 1.2962                 1.3707
 IR Inten    --    147.0706                 5.0304                17.5584

                     49                     50                     51
                      A                      A                      A
 Frequencies --   1109.7108              1112.2995              1142.7279
 Red. masses --      2.1491                 2.4597                 1.3004
 Frc consts  --      1.5593                 1.7930                 1.0005
 IR Inten    --     42.9522                53.5780                14.4960

                     52                     53                     54
                      A                      A                      A
 Frequencies --   1143.2881              1149.9719              1171.3962
 Red. masses --      1.2903                 1.3116                 2.5970
 Frc consts  --      0.9937                 1.0219                 2.0995
 IR Inten    --      9.8597                19.8908                 4.3721

                     55                     56                     57
                      A                      A                      A
 Frequencies --   1176.3511              1191.8070              1199.6199
 Red. masses --      1.9630                 1.9445                 1.4081
 Frc consts  --      1.6005                 1.6273                 1.1939
 IR Inten    --     89.5282                51.7585               271.7527

                     58                     59                     60
                      A                      A                      A
 Frequencies --   1230.1273              1245.7942              1271.8879
 Red. masses --      3.6616                 2.0968                 2.1642
 Frc consts  --      3.2645                 1.9173                 2.0628
 IR Inten    --     54.0900                71.5429                13.4478

                     61                     62                     63
                      A                      A                      A
 Frequencies --   1286.4955              1324.1496              1334.7398
 Red. masses --      2.9143                 8.7401                 2.1329
 Frc consts  --      2.8418                 9.0290                 2.2388
 IR Inten    --    210.9022               270.2279               662.4833

                     64                     65                     66
                      A                      A                      A
 Frequencies --   1352.2655              1382.6078              1396.3928
 Red. masses --      8.4231                 5.8222                 2.8438
 Frc consts  --      9.0750                 6.5574                 3.2671
 IR Inten    --    132.9929               183.1782               872.4564

                     67                     68                     69
                      A                      A                      A
 Frequencies --   1434.2727              1451.6548              1466.1357
 Red. masses --      4.4353                 1.5021                 1.3264
 Frc consts  --      5.3757                 1.8650                 1.6798
 IR Inten    --     58.0446               565.0812                37.2375

                     70                     71                     72
                      A                      A                      A
 Frequencies --   1470.4238              1474.7424              1474.7941
 Red. masses --      2.6002                 1.0538                 1.0513
 Frc consts  --      3.3124                 1.3503                 1.3472
 IR Inten    --    428.3266                14.9834                 7.3810

                     73                     74                     75
                      A                      A                      A
 Frequencies --   1477.1797              1495.1121              1509.8618
 Red. masses --      2.2088                 3.3656                 1.0951
 Frc consts  --      2.8397                 4.4327                 1.4710
 IR Inten    --    160.2344               470.4960                 0.5176

                     76                     77                     78
                      A                      A                      A
 Frequencies --   1510.8680              1538.5243              1548.3710
 Red. masses --      1.0891                 2.2272                 2.5347
 Frc consts  --      1.4648                 3.1061                 3.5804
 IR Inten    --     12.1173               936.3222                 1.7665

                     79                     80                     81
                      A                      A                      A
 Frequencies --   1585.8795              1592.2373              1623.2739
 Red. masses --      3.0605                 2.7184                 5.7092
 Frc consts  --      4.5351                 4.0606                 8.8636
 IR Inten    --    752.5674                58.3592                 0.1107

                     82                     83                     84
                      A                      A                      A
 Frequencies --   1627.4620              2966.0453              2967.2025
 Red. masses --      6.9502                 1.0480                 1.0483
 Frc consts  --     10.8459                 5.4322                 5.4376
 IR Inten    --    139.8906               165.4521               447.8062

                     85                     86                     87
                      A                      A                      A
 Frequencies --   3009.7636              3010.0933              3107.5577
 Red. masses --      1.0937                 1.0933                 1.0945
 Frc consts  --      5.8374                 5.8366                 6.2271
 IR Inten    --     61.3637               153.0972                48.4177

                     88                     89                     90
                      A                      A                      A
 Frequencies --   3107.7605              3156.4817              3171.3581
 Red. masses --      1.0944                 1.0861                 1.0912
 Frc consts  --      6.2276                 6.3755                 6.4659
 IR Inten    --     26.6789                16.3085                34.1102

                     91                     92                     93
                      A                      A                      A
 Frequencies --   3183.5804              3192.0289              3195.5027
 Red. masses --      1.0856                 1.0918                 1.0931
 Frc consts  --      6.4829                 6.5542                 6.5766
 IR Inten    --     37.9368                19.5311                48.4292

                     94                     95                     96
                      A                      A                      A
 Frequencies --   3199.5383              3396.2168              3398.7032
 Red. masses --      1.0924                 1.0811                 1.0808
 Frc consts  --      6.5889                 7.3469                 7.3557
 IR Inten    --     30.8228               240.8367                56.3401

 - Thermochemistry -
 -------------------
 Temperature   298.150 Kelvin.  Pressure   1.00000 Atm.
 Atom     1 has atomic number  6 and mass  12.00000

 Molecular mass:   266.10553 amu.
 Principal axes and moments of inertia in atomic units:
                           1         2         3
     Eigenvalues --  3926.617395808.148289708.25256
           X            0.08915   0.06845   0.99366
           Y            0.74720  -0.66425  -0.02128
           Z            0.65859   0.74437  -0.11036
 This molecule is an asymmetric top.
 Rotational symmetry number  1.
 Warning -- assumption of classical behavior for rotation
           may cause significant error
 Rotational temperatures (Kelvin)      0.02206     0.01491     0.00892
 Rotational constants (GHZ):           0.45962     0.31073     0.18590
 Zero-point vibrational energy     696642.3 (Joules/Mol)
                                  166.50150 (Kcal/Mol)
 Warning -- explicit consideration of  26 degrees of freedom as
           vibrations may cause significant error
 Vibrational temperatures:     56.01    78.64    89.56    93.57   130.78
          (Kelvin)            182.44   254.51   259.34   268.56   297.05
                              327.63   383.00   425.32   467.50   474.04
                              525.88   564.08   568.58   604.96   625.18
                              632.30   686.37   724.87   742.20   825.21
                              860.94   893.52   913.31   921.08   938.75
                              966.71  1042.39  1045.14  1062.19  1095.19
                             1135.57  1144.12  1151.25  1228.50  1267.05
                             1273.92  1280.91  1356.63  1418.41  1435.49
                             1466.01  1499.38  1587.85  1596.63  1600.35
                             1644.13  1644.94  1654.55  1685.38  1692.51
                             1714.74  1725.99  1769.88  1792.42  1829.96
                             1850.98  1905.16  1920.39  1945.61  1989.26
                             2009.10  2063.60  2088.61  2109.44  2115.61
                             2121.83  2121.90  2125.33  2151.13  2172.35
                             2173.80  2213.59  2227.76  2281.73  2290.87
                             2335.53  2341.55  4267.48  4269.14  4330.38
                             4330.85  4471.08  4471.37  4541.47  4562.88
                             4580.46  4592.62  4597.62  4603.42  4886.40
                             4889.98

 Zero-point correction=                           0.265337 (Hartree/Particle)
 Thermal correction to Energy=                    0.282359
 Thermal correction to Enthalpy=                  0.283304
 Thermal correction to Gibbs Free Energy=         0.219750
 Sum of electronic and zero-point Energies=           -878.213890
 Sum of electronic and thermal Energies=              -878.196867
 Sum of electronic and thermal Enthalpies=            -878.195923
 Sum of electronic and thermal Free Energies=         -878.259477

                     E (Thermal)             CV                S
                      KCal/Mol        Cal/Mol-Kelvin    Cal/Mol-Kelvin
 Total                  177.183             66.828            133.760
 Electronic               0.000              0.000              1.377
 Translational            0.889              2.981             42.635
 Rotational               0.889              2.981             33.759
 Vibrational            175.406             60.866             55.988
 Vibration     1          0.594              1.981              5.313
 Vibration     2          0.596              1.976              4.641
 Vibration     3          0.597              1.972              4.385
 Vibration     4          0.597              1.971              4.298
 Vibration     5          0.602              1.956              3.641
 Vibration     6          0.611              1.926              2.994
 Vibration     7          0.628              1.871              2.361
 Vibration     8          0.629              1.867              2.326
 Vibration     9          0.632              1.858              2.261
 Vibration    10          0.641              1.831              2.075
 Vibration    11          0.651              1.799              1.897
 Vibration    12          0.672              1.735              1.621
 Vibration    13          0.690              1.682              1.442
 Vibration    14          0.709              1.626              1.285
 Vibration    15          0.712              1.617              1.263
 Vibration    16          0.739              1.543              1.099
 Vibration    17          0.759              1.487              0.992
 Vibration    18          0.762              1.480              0.981
 Vibration    19          0.783              1.426              0.890
 Vibration    20          0.795              1.395              0.844
 Vibration    21          0.800              1.384              0.828
 Vibration    22          0.834              1.301              0.718
 Vibration    23          0.859              1.242              0.649
 Vibration    24          0.871              1.215              0.620
 Vibration    25          0.930              1.088              0.497
 Vibration    26          0.956              1.035              0.452

 Optimization completed.
    -- Stationary point found.
 Normal termination of Gaussian 16 at Sat Feb 10 19:22:08 2024.
