 Gaussian 16, Revision A.03,
 Gaussian 16:  ES64L-G16RevA.03 25-Dec-2016

 ----------------------------------------------------------------------
 #P UB3LYP/6-311++G(d,p) nosym opt freq SCRF=(PCM,Solvent=n,n-DiMethylF
 ormamide)
 ----------------------------------------------------------------------

 -------
 Reduced
 -------
 Symbolic Z-matrix:
 Charge = -2 Multiplicity = 1

 SCF Done:  E(UB3LYP) =  -610.685686148     A.U. after   16 cycles
 SCF Done:  E(UB3LYP) =  -610.687170159     A.U. after   15 cycles
 SCF Done:  E(UB3LYP) =  -610.687407370     A.U. after   14 cycles
 SCF Done:  E(UB3LYP) =  -610.687409621     A.U. after   13 cycles
 SCF Done:  E(UB3LYP) =  -610.687422851     A.U. after   12 cycles
 SCF Done:  E(UB3LYP) =  -610.687423364     A.U. after   10 cycles
 Optimization completed.
    -- Stationary point found.
 Normal termination of Gaussian 16 at Sun Feb 11 15:18:28 2024.

 ----------------------------------------------------------------------
 #P Geom=AllCheck Guess=TCheck SCRF=Check GenChk UB3LYP/6-311++G(d,p) F
 req
 ----------------------------------------------------------------------

 Structure from the checkpoint file:  "316-an.chk"
 -------
 Reduced
 -------
 Charge = -2 Multiplicity = 1

                          Input orientation:
 ---------------------------------------------------------------------
 Center     Atomic      Atomic             Coordinates (Angstroms)
 Number     Number       Type             X           Y           Z
 ---------------------------------------------------------------------
      1          8           0       -1.335613   -2.628001    0.859815
      2          6           0       -1.153911   -1.403116    0.451480
      3          6           0       -2.368525   -0.615586    0.106694
      4          8           0       -2.521418   -0.154618   -1.274871
      5          6           0       -2.270505    0.836271   -0.225184
      6          6           0       -0.955431    1.531849   -0.220610
      7          8           0       -0.964628    2.824858   -0.389694
      8          6           0        0.168949    0.721323   -0.008541
      9          6           0        1.487827    1.294108   -0.055935
     10          6           0        2.625062    0.577715    0.192661
     11          6           0        2.529878   -0.825381    0.524944
     12          6           0        1.304025   -1.427155    0.583540
     13          6           0        0.070903   -0.731512    0.327397
     14          1           0       -3.302093   -1.003738    0.513157
     15          1           0       -3.135136    1.477276   -0.055788
     16          1           0        1.556398    2.348627   -0.305548
     17          1           0        3.599476    1.054338    0.137737
     18          1           0        3.432918   -1.396039    0.721311
     19          1           0        1.231825   -2.481218    0.833425
 ---------------------------------------------------------------------

 SCF Done:  E(UB3LYP) =  -610.687423364     A.U. after    1 cycles

 Alpha  occ. eigenvalues --  -19.11274 -19.02698 -19.02692 -10.19569 -10.19540
 Alpha  occ. eigenvalues --  -10.17162 -10.17155 -10.14132 -10.14129 -10.13812
 Alpha  occ. eigenvalues --  -10.13774 -10.12333 -10.12305  -1.03837  -0.93092
 Alpha  occ. eigenvalues --   -0.93080  -0.81036  -0.73400  -0.71740  -0.66553
 Alpha  occ. eigenvalues --   -0.65583  -0.59355  -0.58132  -0.52311  -0.48824
 Alpha  occ. eigenvalues --   -0.48011  -0.47102  -0.42016  -0.40346  -0.39399
 Alpha  occ. eigenvalues --   -0.39287  -0.37610  -0.36558  -0.35921  -0.35652
 Alpha  occ. eigenvalues --   -0.32243  -0.31348  -0.30071  -0.29940  -0.27563
 Alpha  occ. eigenvalues --   -0.26110  -0.22571  -0.21139  -0.20164  -0.19917
 Alpha  occ. eigenvalues --   -0.09847
 Alpha virt. eigenvalues --   -0.02101   0.00320   0.01401   0.01736   0.03176
 Alpha virt. eigenvalues --    0.03289   0.03538   0.04784   0.05853   0.06201
 Alpha virt. eigenvalues --    0.06370   0.07027   0.07317   0.08183   0.09729

  Beta  occ. eigenvalues --  -19.11274 -19.02698 -19.02692 -10.19569 -10.19540
  Beta  occ. eigenvalues --  -10.17162 -10.17155 -10.14132 -10.14129 -10.13812
  Beta  occ. eigenvalues --  -10.13774 -10.12333 -10.12305  -1.03837  -0.93092
  Beta  occ. eigenvalues --   -0.93080  -0.81036  -0.73400  -0.71740  -0.66553
  Beta  occ. eigenvalues --   -0.65583  -0.59355  -0.58132  -0.52311  -0.48824
  Beta  occ. eigenvalues --   -0.48011  -0.47102  -0.42016  -0.40346  -0.39399
  Beta  occ. eigenvalues --   -0.39287  -0.37610  -0.36558  -0.35921  -0.35652
  Beta  occ. eigenvalues --   -0.32243  -0.31348  -0.30071  -0.29940  -0.27563
  Beta  occ. eigenvalues --   -0.26110  -0.22571  -0.21139  -0.20164  -0.19917
  Beta  occ. eigenvalues --   -0.09847
  Beta virt. eigenvalues --   -0.02101   0.00320   0.01401   0.01736   0.03176
  Beta virt. eigenvalues --    0.03289   0.03538   0.04784   0.05853   0.06201
  Beta virt. eigenvalues --    0.06370   0.07027   0.07317   0.08183   0.09729

 Mulliken charges and spin densities:
               1          2
     1  O   -0.673900  -0.000000
     2  C   -0.315626  -0.000000
     3  C   -0.055262   0.000000
     4  O   -0.258302   0.000000
     5  C   -0.065975  -0.000000
     6  C   -0.320964   0.000000
     7  O   -0.674074  -0.000000
     8  C    0.141725   0.000000
     9  C    0.021712   0.000000
    10  C   -0.429028  -0.000000
    11  C   -0.438623   0.000000
    12  C    0.010552  -0.000000
    13  C    0.138155  -0.000000
    14  H    0.176474   0.000000
    15  H    0.177010  -0.000000
    16  H    0.135676   0.000000
    17  H    0.147402  -0.000000
    18  H    0.147233   0.000000
    19  H    0.135817   0.000000
 Sum of Mulliken charges =  -2.00000  -0.00000

 Dipole moment (field-independent basis, Debye):
    X=              6.2129    Y=             -0.0195    Z=              0.3718  Tot=              6.2240
 Quadrupole moment (field-independent basis, Debye-Ang):
   XX=            -99.5435   YY=           -137.0194   ZZ=            -92.8029
   XY=             -4.0827   XZ=             -4.9137   YZ=             11.0589

  Exact polarizability: 302.863   3.710 310.581  10.601 -42.639 139.032
 Approx polarizability: 336.526   6.342 371.096  13.468 -53.474 155.498

                      1                      2                      3
                      A                      A                      A
 Frequencies --     85.6049               108.0463               163.2158
 Red. masses --      7.1001                 4.3325                 6.8298
 Frc consts  --      0.0307                 0.0298                 0.1072
 IR Inten    --     27.8540                 6.0429                 2.0576

                      4                      5                      6
                      A                      A                      A
 Frequencies --    231.0218               258.4186               313.2186
 Red. masses --      7.3441                 6.5429                 8.3728
 Frc consts  --      0.2309                 0.2574                 0.4840
 IR Inten    --      2.5132                21.1267                15.3689

                      7                      8                      9
                      A                      A                      A
 Frequencies --    341.0647               412.8534               438.2836
 Red. masses --     10.9205                 5.9608                 3.0931
 Frc consts  --      0.7485                 0.5986                 0.3501
 IR Inten    --     16.7771                45.3532                20.7611

                     10                     11                     12
                      A                      A                      A
 Frequencies --    448.7568               484.0574               500.5163
 Red. masses --      7.2007                 8.7252                 5.6583
 Frc consts  --      0.8544                 1.2045                 0.8352
 IR Inten    --      4.9602                38.2191               119.7760

                     13                     14                     15
                      A                      A                      A
 Frequencies --    547.3721               621.9002               655.3642
 Red. masses --      5.4654                 4.5785                 4.7159
 Frc consts  --      0.9648                 1.0433                 1.1934
 IR Inten    --     35.2261                24.5117                78.0502

                     16                     17                     18
                      A                      A                      A
 Frequencies --    672.8383               682.1187               737.7014
 Red. masses --      6.3465                 4.3522                 3.2627
 Frc consts  --      1.6928                 1.1931                 1.0461
 IR Inten    --    106.2736               154.9928                17.5154

                     19                     20                     21
                      A                      A                      A
 Frequencies --    741.4469               786.0820               795.0161
 Red. masses --      1.7822                 4.7713                 1.8318
 Frc consts  --      0.5772                 1.7371                 0.6821
 IR Inten    --     33.7595                38.2815                 1.8476

                     22                     23                     24
                      A                      A                      A
 Frequencies --    818.6638               823.0725               958.7599
 Red. masses --      4.9833                 5.8235                 1.3901
 Frc consts  --      1.9678                 2.3244                 0.7529
 IR Inten    --     81.1455                12.9896                18.6794

                     25                     26                     27
                      A                      A                      A
 Frequencies --    965.4076               968.6930               987.8696
 Red. masses --      1.9148                 1.4542                 1.9883
 Frc consts  --      1.0515                 0.8040                 1.1432
 IR Inten    --     88.7862                26.3315                17.9037

                     28                     29                     30
                      A                      A                      A
 Frequencies --   1054.2807              1079.7429              1081.4031
 Red. masses --      3.7405                 3.2103                 2.3798
 Frc consts  --      2.4496                 2.2051                 1.6397
 IR Inten    --    130.4273              1459.8132               262.4325

                     31                     32                     33
                      A                      A                      A
 Frequencies --   1143.0074              1150.5223              1161.3109
 Red. masses --      1.1994                 1.5062                 1.2911
 Frc consts  --      0.9232                 1.1747                 1.0259
 IR Inten    --     68.8751               420.2826               370.0457

                     34                     35                     36
                      A                      A                      A
 Frequencies --   1244.8888              1266.1764              1287.7644
 Red. masses --      1.6519                 6.1311                 1.9161
 Frc consts  --      1.5084                 5.7913                 1.8721
 IR Inten    --     69.3021               406.0149               630.0819

                     37                     38                     39
                      A                      A                      A
 Frequencies --   1301.4944              1335.4413              1344.0494
 Red. masses --      4.2177                 2.3717                 1.5070
 Frc consts  --      4.2093                 2.4921                 1.6040
 IR Inten    --    231.2059                50.5684               677.0095

                     40                     41                     42
                      A                      A                      A
 Frequencies --   1417.2327              1465.8943              1480.7712
 Red. masses --      2.8240                 2.3197                 6.1780
 Frc consts  --      3.3419                 2.9369                 7.9813
 IR Inten    --   1322.4653                65.0797               366.6993

                     43                     44                     45
                      A                      A                      A
 Frequencies --   1519.8821              1541.1090              1599.6155
 Red. masses --      8.3399                 6.7925                 4.9632
 Frc consts  --     11.3509                 9.5048                 7.4824
 IR Inten    --     46.8854               183.6400                 4.4496

                     46                     47                     48
                      A                      A                      A
 Frequencies --   3081.3936              3093.6386              3130.5105
 Red. masses --      1.0867                 1.0903                 1.0832
 Frc consts  --      6.0792                 6.1482                 6.2545
 IR Inten    --    107.5967               247.1529                26.7234

                     49                     50                     51
                      A                      A                      A
 Frequencies --   3143.0390              3157.2176              3164.5378
 Red. masses --      1.0860                 1.0920                 1.0952
 Frc consts  --      6.3209                 6.4133                 6.4622
 IR Inten    --     15.8609                74.7982                82.5999

 - Thermochemistry -
 -------------------
 Temperature   298.150 Kelvin.  Pressure   1.00000 Atm.
 Atom     1 has atomic number  8 and mass  15.99491

 Molecular mass:   174.03169 amu.
 Principal axes and moments of inertia in atomic units:
                           1         2         3
     Eigenvalues --  1549.327352046.948193435.48461
           X            0.98785   0.06498  -0.14119
           Y           -0.03089   0.97237   0.23140
           Z            0.15233  -0.22423   0.96256
 This molecule is an asymmetric top.
 Rotational symmetry number  1.
 Warning -- assumption of classical behavior for rotation
           may cause significant error
 Rotational temperatures (Kelvin)      0.05590     0.04231     0.02521
 Rotational constants (GHZ):           1.16485     0.88167     0.52532
 Zero-point vibrational energy     345674.6 (Joules/Mol)
                                   82.61822 (Kcal/Mol)
 Warning -- explicit consideration of  13 degrees of freedom as
           vibrations may cause significant error
 Vibrational temperatures:    123.17   155.45   234.83   332.39   371.81
          (Kelvin)            450.65   490.72   594.00   630.59   645.66
                              696.45   720.13   787.55   894.78   942.92
                              968.06   981.42  1061.39  1066.78  1131.00
                             1143.85  1177.87  1184.22  1379.44  1389.01
                             1393.73  1421.32  1516.87  1553.51  1555.90
                             1644.53  1655.35  1670.87  1791.12  1821.75
                             1852.81  1872.56  1921.40  1933.79  2039.08
                             2109.09  2130.50  2186.77  2217.31  2301.49
                             4433.44  4451.06  4504.11  4522.13  4542.53
                             4553.06

 Zero-point correction=                           0.131661 (Hartree/Particle)
 Thermal correction to Energy=                    0.141282
 Thermal correction to Enthalpy=                  0.142227
 Thermal correction to Gibbs Free Energy=         0.096583
 Sum of electronic and zero-point Energies=           -610.555763
 Sum of electronic and thermal Energies=              -610.546141
 Sum of electronic and thermal Enthalpies=            -610.545197
 Sum of electronic and thermal Free Energies=         -610.590841

                     E (Thermal)             CV                S
                      KCal/Mol        Cal/Mol-Kelvin    Cal/Mol-Kelvin
 Total                   88.656             38.766             96.065
 Electronic               0.000              0.000              0.000
 Translational            0.889              2.981             41.370
 Rotational               0.889              2.981             30.767
 Vibrational             86.879             32.805             23.929
 Vibration     1          0.601              1.959              3.758
 Vibration     2          0.606              1.943              3.304
 Vibration     3          0.623              1.888              2.512
 Vibration     4          0.653              1.794              1.871
 Vibration     5          0.667              1.749              1.672
 Vibration     6          0.701              1.648              1.345
 Vibration     7          0.721              1.593              1.207
 Vibration     8          0.777              1.442              0.917
 Vibration     9          0.798              1.387              0.832
 Vibration    10          0.808              1.364              0.800
 Vibration    11          0.840              1.285              0.699
 Vibration    12          0.856              1.249              0.657
 Vibration    13          0.903              1.145              0.550

                           ! Non-Optimized Parameters !
 Normal termination of Gaussian 16 at Sun Feb 11 15:44:52 2024.
