 Gaussian 16, Revision A.03,
 Gaussian 16:  ES64L-G16RevA.03 25-Dec-2016

 ----------------------------------------------------------------
 #P UB3LYP/6-311++G(d,p) SCRF=(PCM,Solvent=n,n-DiMethylFormamide)
 ----------------------------------------------------------------

 ------------------
 Radical PCM in DMF
 ------------------
 Symbolic Z-matrix:
 Charge = -1 Multiplicity = 2

                         Standard orientation:
 ---------------------------------------------------------------------
 Center     Atomic      Atomic             Coordinates (Angstroms)
 Number     Number       Type             X           Y           Z
 ---------------------------------------------------------------------
      1          6           0       -3.167583   -1.918723   -0.000136
      2          6           0       -4.528880   -1.678562    0.000045
      3          6           0       -5.012334   -0.354537    0.000267
      4          6           0       -2.239856   -0.855564   -0.000103
      5          6           0       -2.729014    0.472389    0.000094
      6          6           0       -4.120089    0.700739    0.000290
      7          6           0       -0.798600   -1.171816   -0.000260
      8          6           0        0.130730   -0.043033   -0.000132
      9          6           0       -0.378987    1.288317   -0.000101
     10          6           0       -1.805543    1.608808    0.000094
     11          6           0        1.576761   -0.226706   -0.000064
     12          6           0        2.436230    0.919327   -0.000139
     13          6           0        0.513895    2.394166   -0.000207
     14          6           0        1.866380    2.229064   -0.000263
     15          8           0       -0.442803   -2.379421   -0.000412
     16          8           0       -2.224713    2.791584    0.000127
     17          1           0       -2.769924   -2.926464   -0.000305
     18          1           0       -5.227176   -2.510429    0.000016
     19          1           0       -6.081847   -0.166192    0.000424
     20          1           0        2.530786    3.088847   -0.000354
     21          1           0       -4.457345    1.730787    0.000476
     22          1           0        0.063756    3.379842   -0.000221
     23          6           0        3.841007    0.755228   -0.000048
     24          6           0        4.409086   -0.501236    0.000153
     25          6           0        3.587211   -1.636195    0.000261
     26          6           0        2.211359   -1.498359    0.000146
     27          8           0        5.778389   -0.700701    0.000264
     28          1           0        4.470709    1.643056   -0.000103
     29          1           0        4.045994   -2.618693    0.000430
     30          1           0        1.577265   -2.371659    0.000219
     31          1           0        6.210150    0.159373    0.000197
 ---------------------------------------------------------------------

 SCF Done:  E(UB3LYP) =  -918.022006578     A.U. after   19 cycles

 The electronic state is 2-A.
 Alpha  occ. eigenvalues --  -19.15848 -19.07770 -19.07415 -10.23756 -10.22602
 Alpha  occ. eigenvalues --  -10.22556 -10.18745 -10.18364 -10.17930 -10.17400
 Alpha  occ. eigenvalues --  -10.17354 -10.17348 -10.17271 -10.17235 -10.17210
 Alpha  occ. eigenvalues --  -10.17201 -10.17113 -10.17082 -10.16946 -10.16845
 Alpha  occ. eigenvalues --  -10.16758  -1.06485  -1.00579  -1.00227  -0.87380
 Alpha  occ. eigenvalues --   -0.85785  -0.82493  -0.78668  -0.76086  -0.75060
 Alpha  occ. eigenvalues --   -0.74462  -0.72086  -0.67199  -0.63784  -0.63542
 Alpha  occ. eigenvalues --   -0.61177  -0.59563  -0.56282  -0.55459  -0.53401
 Alpha  occ. eigenvalues --   -0.51636  -0.50007  -0.47970  -0.46552  -0.46197
 Alpha  occ. eigenvalues --   -0.45383  -0.43499  -0.42865  -0.42656  -0.42195
 Alpha  occ. eigenvalues --   -0.41470  -0.41362  -0.40496  -0.40455  -0.39522
 Alpha  occ. eigenvalues --   -0.38207  -0.37356  -0.37295  -0.36360  -0.34757
 Alpha  occ. eigenvalues --   -0.34712  -0.34128  -0.33348  -0.31057  -0.28316
 Alpha  occ. eigenvalues --   -0.26062  -0.25672  -0.24574  -0.24221  -0.23357
 Alpha  occ. eigenvalues --   -0.21950  -0.14547
 Alpha virt. eigenvalues --   -0.05318  -0.03595  -0.01212  -0.00444   0.00062
 Alpha virt. eigenvalues --    0.00424   0.00963   0.01332   0.02056   0.02996
 Alpha virt. eigenvalues --    0.03580   0.04133   0.04288   0.04665   0.05230

  Beta  occ. eigenvalues --  -19.15838 -19.07230 -19.06877 -10.23737 -10.22421
  Beta  occ. eigenvalues --  -10.22408 -10.18742 -10.18359 -10.17814 -10.17367
  Beta  occ. eigenvalues --  -10.17312 -10.17301 -10.17266 -10.17180 -10.17171
  Beta  occ. eigenvalues --  -10.17090 -10.17078 -10.17024 -10.16940 -10.16882
  Beta  occ. eigenvalues --  -10.16741  -1.06461  -0.99640  -0.99262  -0.87245
  Beta  occ. eigenvalues --   -0.85622  -0.82303  -0.78377  -0.75937  -0.74878
  Beta  occ. eigenvalues --   -0.74322  -0.71925  -0.66524  -0.63639  -0.63373
  Beta  occ. eigenvalues --   -0.60999  -0.59492  -0.56112  -0.55301  -0.53256
  Beta  occ. eigenvalues --   -0.51508  -0.49898  -0.47728  -0.46425  -0.46071
  Beta  occ. eigenvalues --   -0.45305  -0.43451  -0.42763  -0.42087  -0.41995
  Beta  occ. eigenvalues --   -0.41033  -0.40733  -0.40363  -0.40189  -0.39396
  Beta  occ. eigenvalues --   -0.37261  -0.37083  -0.36276  -0.35922  -0.34582
  Beta  occ. eigenvalues --   -0.34058  -0.33844  -0.33226  -0.30509  -0.27347
  Beta  occ. eigenvalues --   -0.25135  -0.24801  -0.24079  -0.23651  -0.22873
  Beta  occ. eigenvalues --   -0.21308
  Beta virt. eigenvalues --   -0.08821  -0.04576  -0.02793  -0.00769  -0.00435
  Beta virt. eigenvalues --    0.00069   0.00802   0.00969   0.01341   0.02056
  Beta virt. eigenvalues --    0.03008   0.03588   0.04146   0.04682   0.04925

 Mulliken charges and spin densities:
               1          2
     1  C    0.020411   0.025609
     2  C   -0.467906   0.024866
     3  C   -0.482989   0.028602
     4  C    0.193055   0.002526
     5  C    0.160935   0.020333
     6  C   -0.038637   0.020624
     7  C   -0.655611   0.108013
     8  C    0.667264   0.094519
     9  C    0.688658   0.090339
    10  C   -0.826590   0.082641
    11  C    0.890503   0.015041
    12  C    0.586568  -0.008314
    13  C   -0.224100  -0.014125
    14  C   -0.436051   0.079251
    15  O   -0.410820   0.204841
    16  O   -0.439691   0.200183
    17  H    0.161227  -0.001742
    18  H    0.183364  -0.002149
    19  H    0.182506  -0.002402
    20  H    0.169066  -0.004654
    21  H    0.161738  -0.001547
    22  H    0.163932   0.000653
    23  C   -0.288449   0.002178
    24  C   -0.538810   0.011713
    25  C   -0.441590   0.015125
    26  C   -0.494335   0.012190
    27  O   -0.291063   0.002522
    28  H    0.137225  -0.000976
    29  H    0.208596  -0.001637
    30  H    0.158674  -0.004141
    31  H    0.302919  -0.000081
 Sum of Mulliken charges =  -1.00000   1.00000

 Dipole moment (field-independent basis, Debye):
    X=              5.1095    Y=              0.6303    Z=              0.0007  Tot=              5.1482
 Quadrupole moment (field-independent basis, Debye-Ang):
   XX=           -129.8320   YY=           -148.9766   ZZ=           -129.7161
   XY=             24.7664   XZ=             -0.0012   YZ=             -0.0033

 Normal termination of Gaussian 16 at Tue Jan 16 05:59:56 2024.
