 Q-Chem 5.4, Q-Chem, Inc., Pleasanton, CA (2021)
 Q-Chem 5.4.0 for Intel X86 EM64T Linux

User input:
--------------------------------------------------------------
$molecule
-1 2
C                  5.2627680000     -2.3269510000      0.3723040000
C                  6.0194460000     -1.5014480000     -0.4381220000
C                  5.3850890000     -0.6054670000     -1.3221910000
C                  3.8526840000     -2.2925160000      0.3340880000
C                  3.2193670000     -1.3916360000     -0.5547650000
C                  4.0050380000     -0.5563890000     -1.3747140000
C                  3.0967500000     -3.1967010000      1.2219220000
C                  1.6377260000     -3.1312260000      1.1528750000
C                  1.0160040000     -2.2178730000      0.2520140000
C                  1.7587860000     -1.3193050000     -0.6303850000
C                  0.7818690000     -3.9735250000      1.9791820000
C                 -0.6419140000     -3.8631410000      1.8663250000
C                 -0.4013530000     -2.1444210000      0.1755700000
C                 -1.2067200000     -2.9288910000      0.9452880000
O                  3.7336100000     -3.9696040000      1.9847670000
O                  1.1834040000     -0.5254090000     -1.4135370000
H                  5.7252660000     -3.0243580000      1.0603400000
H                  7.1038710000     -1.5427600000     -0.3941310000
H                  5.9798250000      0.0429200000     -1.9587560000
H                 -2.2883010000     -2.8562630000      0.8706530000
H                  3.4849330000      0.1204160000     -2.0426710000
H                 -0.8118440000     -1.4303010000     -0.5284990000
C                 -1.4838040000     -4.6744510000      2.6621420000
C                 -0.9566230000     -5.5819040000      3.5565840000
C                  0.4333540000     -5.7064940000      3.6832730000
C                  1.2745930000     -4.9230100000      2.9148740000
O                 -1.7484490000     -6.3919720000      4.3513030000
H                 -2.5620770000     -4.5701300000      2.5562740000
H                  0.8356130000     -6.4236760000      4.3901130000
H                  2.3452800000     -5.0179850000      3.0114960000
H                 -2.6710040000     -6.1980960000      4.1577830000
$end
$rem
MAX_SCF_CYCLES=200
BASIS  =  6-311++G(d,p)
GUI  =  2
JOB_TYPE  =  SP
METHOD  =  B3LYP
SOLVENT_METHOD = PCM
$end
$pcm
theory = CPCM
$end
$solvent
dielectric 37.219
opticaldielectric 1.43
$end

--------------------------------------------------------------

             Standard Nuclear Orientation (Angstroms)
    I     Atom           X                Y                Z
 ----------------------------------------------------------------
    1      C       5.2627680000    -2.3269510000     0.3723040000
    2      C       6.0194460000    -1.5014480000    -0.4381220000
    3      C       5.3850890000    -0.6054670000    -1.3221910000
    4      C       3.8526840000    -2.2925160000     0.3340880000
    5      C       3.2193670000    -1.3916360000    -0.5547650000
    6      C       4.0050380000    -0.5563890000    -1.3747140000
    7      C       3.0967500000    -3.1967010000     1.2219220000
    8      C       1.6377260000    -3.1312260000     1.1528750000
    9      C       1.0160040000    -2.2178730000     0.2520140000
   10      C       1.7587860000    -1.3193050000    -0.6303850000
   11      C       0.7818690000    -3.9735250000     1.9791820000
   12      C      -0.6419140000    -3.8631410000     1.8663250000
   13      C      -0.4013530000    -2.1444210000     0.1755700000
   14      C      -1.2067200000    -2.9288910000     0.9452880000
   15      O       3.7336100000    -3.9696040000     1.9847670000
   16      O       1.1834040000    -0.5254090000    -1.4135370000
   17      H       5.7252660000    -3.0243580000     1.0603400000
   18      H       7.1038710000    -1.5427600000    -0.3941310000
   19      H       5.9798250000     0.0429200000    -1.9587560000
   20      H      -2.2883010000    -2.8562630000     0.8706530000
   21      H       3.4849330000     0.1204160000    -2.0426710000
   22      H      -0.8118440000    -1.4303010000    -0.5284990000
   23      C      -1.4838040000    -4.6744510000     2.6621420000
   24      C      -0.9566230000    -5.5819040000     3.5565840000
   25      C       0.4333540000    -5.7064940000     3.6832730000
   26      C       1.2745930000    -4.9230100000     2.9148740000
   27      O      -1.7484490000    -6.3919720000     4.3513030000
   28      H      -2.5620770000    -4.5701300000     2.5562740000
   29      H       0.8356130000    -6.4236760000     4.3901130000
   30      H       2.3452800000    -5.0179850000     3.0114960000
   31      H      -2.6710040000    -6.1980960000     4.1577830000
 ----------------------------------------------------------------

    8    -918.0281832532      6.80e-06  Convergence criterion met
 Total energy in the final basis set =     -918.0281832532

                    Orbital Energies (a.u.)
 --------------------------------------------------------------

 Alpha MOs
 -- Occupied --
-19.1554 -19.0792 -19.0759 -10.2359 -10.2279 -10.2274 -10.1865 -10.1835
-10.1801 -10.1737 -10.1730 -10.1726 -10.1726 -10.1724 -10.1705 -10.1703
-10.1703 -10.1702 -10.1691 -10.1680 -10.1671  -1.0617  -1.0076  -1.0042
 -0.8734  -0.8578  -0.8245  -0.7864  -0.7603  -0.7506  -0.7441  -0.7201
 -0.6722  -0.6373  -0.6344  -0.6112  -0.5947  -0.5620  -0.5538  -0.5332
 -0.5155  -0.4990  -0.4796  -0.4649  -0.4614  -0.4529  -0.4338  -0.4284
 -0.4272  -0.4220  -0.4144  -0.4137  -0.4048  -0.4041  -0.3942  -0.3839
 -0.3726  -0.3722  -0.3629  -0.3478  -0.3468  -0.3405  -0.3331  -0.3103
 -0.2833  -0.2607  -0.2569  -0.2477  -0.2419  -0.2353  -0.2188  -0.1465

 Beta MOs
 -- Occupied --
-19.1553 -19.0741 -19.0709 -10.2357 -10.2259 -10.2257 -10.1864 -10.1834
-10.1789 -10.1732 -10.1726 -10.1721 -10.1720 -10.1715 -10.1703 -10.1703
-10.1702 -10.1694 -10.1690 -10.1682 -10.1669  -1.0614  -0.9987  -0.9950
 -0.8720  -0.8562  -0.8226  -0.7835  -0.7588  -0.7487  -0.7426  -0.7185
 -0.6654  -0.6358  -0.6327  -0.6094  -0.5940  -0.5602  -0.5523  -0.5318
 -0.5141  -0.4979  -0.4771  -0.4637  -0.4602  -0.4521  -0.4333  -0.4272
 -0.4207  -0.4192  -0.4112  -0.4074  -0.4032  -0.4022  -0.3932  -0.3713
 -0.3704  -0.3621  -0.3613  -0.3455  -0.3398  -0.3388  -0.3320  -0.3049
 -0.2735  -0.2514  -0.2490  -0.2431  -0.2363  -0.2307  -0.2127

          Ground-State Mulliken Net Atomic Charges

     Atom                 Charge (a.u.)    Spin (a.u.)
  --------------------------------------------------------
      1 C                     0.011034       0.026809
      2 C                    -0.476787       0.025619
      3 C                    -0.480104       0.028547
      4 C                     0.190023       0.001206
      5 C                     0.152564       0.017434
      6 C                    -0.091187       0.021999
      7 C                    -0.620315       0.116789
      8 C                     0.656326       0.092303
      9 C                     0.678091       0.086047
     10 C                    -0.758023       0.093225
     11 C                     0.871859       0.015513
     12 C                     0.564895      -0.006162
     13 C                    -0.226243      -0.009485
     14 C                    -0.453220       0.076446
     15 O                    -0.433488       0.197697
     16 O                    -0.462119       0.192792
     17 H                     0.167983      -0.001781
     18 H                     0.199503      -0.002229
     19 H                     0.198376      -0.002431
     20 H                     0.189372      -0.004306
     21 H                     0.168927      -0.001600
     22 H                     0.168501       0.000324
     23 C                    -0.276962       0.000216
     24 C                    -0.535570       0.012332
     25 C                    -0.456752       0.015245
     26 C                    -0.507708       0.011391
     27 O                    -0.309817       0.002678
     28 H                     0.164833      -0.000877
     29 H                     0.224277      -0.001615
     30 H                     0.159685      -0.004036
     31 H                     0.322045      -0.000088
  --------------------------------------------------------
  Sum of atomic charges =    -1.000001

                    Cartesian Multipole Moments
 -----------------------------------------------------------------
    Charge (ESU x 10^10)
                -4.8032
    Dipole Moment (Debye)
         X     -12.3512      Y      12.1723      Z      -2.7286
       Tot      17.5546
    Quadrupole Moments (Debye-Ang)
        XX    -140.4143     XY      42.6675     YY    -176.2913
        XZ     -18.1424     YZ      22.3974     ZZ    -146.5727

 Total job time:  116.16s(wall), 564.42s(cpu)
        *  Thank you very much for using Q-Chem.  Have a nice day.  *
