 Q-Chem 5.4, Q-Chem, Inc., Pleasanton, CA (2021)
 Q-Chem 5.4.0 for Intel X86 EM64T Linux

User input:
--------------------------------------------------------------
$molecule
-2 1
C                  3.3808640000      6.0148270000      0.5667690000
C                  2.1980030000      5.3568920000      1.0596320000
C                  2.2066680000      4.0044070000      1.4402760000
C                  3.3905160000      3.1918580000      1.3541030000
C                  4.5710860000      3.8457440000      0.8564080000
C                  4.5661650000      5.1939360000      0.4865140000
O                  3.3874820000      7.2643960000      0.2082910000
O                  3.3805480000      1.9385990000      1.7123210000
C                  5.8218640000      5.8546710000     -0.0338350000
C                  5.8315540000      3.0168770000      0.7638510000
C                  0.9433430000      6.1996590000      1.1317700000
C                  0.9782200000      3.3168820000      1.9959910000
C                  0.5179290000      2.1368080000      1.1147100000
C                 -0.7059500000      1.4067340000      1.5937210000
O                 -1.2173760000      1.4638250000      2.6868310000
O                 -1.2992580000      0.5821800000      0.6535740000
H                  6.6513920000      5.8092160000      0.6894370000
H                  5.5945300000      6.9021100000     -0.2459130000
H                  6.1937400000      5.3811010000     -0.9571710000
H                  5.5977310000      1.9979740000      1.0818640000
H                  6.6385510000      3.4071050000      1.4053130000
H                  6.2399830000      2.9857950000     -0.2580660000
H                  1.1855440000      7.1918630000      0.7436350000
H                  0.5615940000      6.3137420000      2.1579600000
H                  0.1161100000      5.7817390000      0.5356610000
H                  0.1509000000      4.0176720000      2.1287650000
H                  1.2114740000      2.8928760000      2.9802600000
H                  1.3757590000      1.4434230000      1.0911760000
H                  0.3516400000      2.4712260000      0.0812300000
H                 -0.8202460000      0.6585920000     -0.1861600000
$end
$rem
MAX_SCF_CYCLES=200
BASIS  =  6-311++G(d,p)
GUI  =  2
JOB_TYPE  =  SP
METHOD  =  B3LYP
SOLVENT_METHOD = PCM
$end
$pcm
theory = CPCM
$end
$solvent
dielectric 37.219
opticaldielectric 1.43
$end

--------------------------------------------------------------

             Standard Nuclear Orientation (Angstroms)
    I     Atom           X                Y                Z
 ----------------------------------------------------------------
    1      C       3.3808640000     6.0148270000     0.5667690000
    2      C       2.1980030000     5.3568920000     1.0596320000
    3      C       2.2066680000     4.0044070000     1.4402760000
    4      C       3.3905160000     3.1918580000     1.3541030000
    5      C       4.5710860000     3.8457440000     0.8564080000
    6      C       4.5661650000     5.1939360000     0.4865140000
    7      O       3.3874820000     7.2643960000     0.2082910000
    8      O       3.3805480000     1.9385990000     1.7123210000
    9      C       5.8218640000     5.8546710000    -0.0338350000
   10      C       5.8315540000     3.0168770000     0.7638510000
   11      C       0.9433430000     6.1996590000     1.1317700000
   12      C       0.9782200000     3.3168820000     1.9959910000
   13      C       0.5179290000     2.1368080000     1.1147100000
   14      C      -0.7059500000     1.4067340000     1.5937210000
   15      O      -1.2173760000     1.4638250000     2.6868310000
   16      O      -1.2992580000     0.5821800000     0.6535740000
   17      H       6.6513920000     5.8092160000     0.6894370000
   18      H       5.5945300000     6.9021100000    -0.2459130000
   19      H       6.1937400000     5.3811010000    -0.9571710000
   20      H       5.5977310000     1.9979740000     1.0818640000
   21      H       6.6385510000     3.4071050000     1.4053130000
   22      H       6.2399830000     2.9857950000    -0.2580660000
   23      H       1.1855440000     7.1918630000     0.7436350000
   24      H       0.5615940000     6.3137420000     2.1579600000
   25      H       0.1161100000     5.7817390000     0.5356610000
   26      H       0.1509000000     4.0176720000     2.1287650000
   27      H       1.2114740000     2.8928760000     2.9802600000
   28      H       1.3757590000     1.4434230000     1.0911760000
   29      H       0.3516400000     2.4712260000     0.0812300000
   30      H      -0.8202460000     0.6585920000    -0.1861600000
 ----------------------------------------------------------------

    9    -767.0880539612      9.19e-06  Convergence criterion met
 Total energy in the final basis set =     -767.0880539612

                    Orbital Energies (a.u.)
 --------------------------------------------------------------

 Alpha MOs
 -- Occupied --
-19.1631 -19.1161 -19.0086 -19.0057 -10.3053 -10.1649 -10.1548 -10.1544
-10.1469 -10.1310 -10.1303 -10.1301 -10.1184 -10.1174 -10.1169 -10.1164
 -1.0982  -1.0216  -0.9229  -0.9189  -0.7885  -0.7700  -0.7378  -0.6903
 -0.6783  -0.6546  -0.6074  -0.5953  -0.5842  -0.5120  -0.5000  -0.4973
 -0.4745  -0.4581  -0.4518  -0.4155  -0.4051  -0.4012  -0.3957  -0.3849
 -0.3769  -0.3680  -0.3676  -0.3563  -0.3541  -0.3432  -0.3393  -0.3367
 -0.3302  -0.3267  -0.3163  -0.2982  -0.2954  -0.2921  -0.2843  -0.2117
 -0.1927  -0.1858  -0.1822  -0.1074

          Ground-State Mulliken Net Atomic Charges

     Atom                 Charge (a.u.)
  ----------------------------------------
      1 C                    -1.248877
      2 C                     0.591821
      3 C                     0.806318
      4 C                    -1.092216
      5 C                     0.604658
      6 C                     0.464386
      7 O                    -0.754369
      8 O                    -0.732820
      9 C                    -0.467717
     10 C                    -0.579494
     11 C                    -0.640349
     12 C                    -0.291569
     13 C                    -0.328044
     14 C                    -0.082609
     15 O                    -0.374909
     16 O                    -0.243858
     17 H                     0.131173
     18 H                     0.162053
     19 H                     0.132629
     20 H                     0.160222
     21 H                     0.130836
     22 H                     0.131332
     23 H                     0.159991
     24 H                     0.151616
     25 H                     0.134143
     26 H                     0.168398
     27 H                     0.167451
     28 H                     0.255262
     29 H                     0.171966
     30 H                     0.312577
  ----------------------------------------
  Sum of atomic charges =    -2.000000

                    Cartesian Multipole Moments
 -----------------------------------------------------------------
    Charge (ESU x 10^10)
                -9.6064
    Dipole Moment (Debye)
         X     -27.6074      Y     -42.4819      Z     -13.6567
       Tot      52.4727
    Quadrupole Moments (Debye-Ang)
        XX    -222.4303     XY    -141.9690     YY    -360.5949
        XZ     -19.6441     YZ     -29.7557     ZZ    -131.4714

 Total job time:  47.86s(wall), 318.81s(cpu)
        *  Thank you very much for using Q-Chem.  Have a nice day.  *
