 Gaussian 16, Revision A.03,
 Gaussian 16:  ES64L-G16RevA.03 25-Dec-2016

 ----------------------------------------------------------------------
 #P UB3LYP/6-311++G(d,p) nosym opt freq SCRF=(PCM,Solvent=n,n-DiMethylF
 ormamide)
 ----------------------------------------------------------------------

 --------
 Oxidized
 --------
 Symbolic Z-matrix:
 Charge =  0 Multiplicity = 1

 SCF Done:  E(UB3LYP) =  -728.285573501     A.U. after   14 cycles
 SCF Done:  E(UB3LYP) =  -728.285651166     A.U. after   11 cycles
 SCF Done:  E(UB3LYP) =  -728.285658781     A.U. after   11 cycles
 SCF Done:  E(UB3LYP) =  -728.285663861     A.U. after   10 cycles
 SCF Done:  E(UB3LYP) =  -728.285665551     A.U. after    9 cycles
 SCF Done:  E(UB3LYP) =  -728.285665652     A.U. after    9 cycles
 Optimization completed.
    -- Stationary point found.
 Normal termination of Gaussian 16 at Sat Feb 10 16:23:38 2024.

 ----------------------------------------------------------------------
 #P Geom=AllCheck Guess=TCheck SCRF=Check GenChk UB3LYP/6-311++G(d,p) F
 req
 ----------------------------------------------------------------------

 Structure from the checkpoint file:  "123.chk"
 --------
 Oxidized
 --------
 Charge =  0 Multiplicity = 1

                          Input orientation:
 ---------------------------------------------------------------------
 Center     Atomic      Atomic             Coordinates (Angstroms)
 Number     Number       Type             X           Y           Z
 ---------------------------------------------------------------------
      1          6           0       -2.901472   -1.923668   -0.137777
      2          6           0       -2.406697   -0.500971   -0.050487
      3          6           0       -3.368237    0.513315    0.050295
      4          6           0       -3.022072    1.857533    0.136204
      5          6           0       -1.683586    2.225300    0.123581
      6          6           0       -0.694310    1.246976    0.024742
      7          6           0        0.725076    1.711757    0.017158
      8          8           0        0.998301    2.903847    0.095561
      9          6           0        1.793054    0.687838   -0.089178
     10          6           0        3.134544    1.085232   -0.100537
     11          6           0        4.143984    0.135092   -0.198764
     12          6           0        3.819027   -1.221760   -0.286264
     13          6           0        2.487794   -1.623056   -0.275660
     14          6           0        1.464603   -0.674233   -0.177488
     15          6           0        0.044360   -1.142419   -0.169481
     16          8           0       -0.193110   -2.341819   -0.248196
     17          6           0       -1.039880   -0.124258   -0.063676
     18          1           0       -3.992241   -1.935377   -0.106861
     19          1           0       -2.519894   -2.533118    0.683548
     20          1           0       -2.570418   -2.408910   -1.057807
     21          1           0       -4.415853    0.234031    0.060857
     22          1           0       -3.795740    2.612608    0.212633
     23          1           0       -1.386703    3.263663    0.189212
     24          1           0        3.367983    2.140074   -0.031623
     25          1           0        5.181933    0.446348   -0.207262
     26          1           0        4.605505   -1.963447   -0.362580
     27          1           0        2.224048   -2.670578   -0.342773
 ---------------------------------------------------------------------

 SCF Done:  E(UB3LYP) =  -728.285665652     A.U. after    1 cycles

 Alpha  occ. eigenvalues --  -19.13024 -19.12827 -10.28283 -10.28271 -10.21297
 Alpha  occ. eigenvalues --  -10.21103 -10.20910 -10.20877 -10.20782 -10.19907
 Alpha  occ. eigenvalues --  -10.19858 -10.19806 -10.19726 -10.19719 -10.19455
 Alpha  occ. eigenvalues --  -10.19421 -10.16960  -1.06392  -1.06200  -0.89424
 Alpha  occ. eigenvalues --   -0.88309  -0.81360  -0.79571  -0.77844  -0.77001
 Alpha  occ. eigenvalues --   -0.71182  -0.68377  -0.66178  -0.64395  -0.60784
 Alpha  occ. eigenvalues --   -0.57708  -0.56152  -0.55227  -0.50478  -0.49184
 Alpha  occ. eigenvalues --   -0.48806  -0.48439  -0.45824  -0.45800  -0.45157
 Alpha  occ. eigenvalues --   -0.44670  -0.44072  -0.42895  -0.42769  -0.41222
 Alpha  occ. eigenvalues --   -0.39907  -0.38747  -0.38396  -0.37474  -0.37294
 Alpha  occ. eigenvalues --   -0.36616  -0.36417  -0.28964  -0.28567  -0.27889
 Alpha  occ. eigenvalues --   -0.27658  -0.27232  -0.26922
 Alpha virt. eigenvalues --   -0.11831  -0.07316  -0.03783  -0.02651  -0.00728
 Alpha virt. eigenvalues --    0.00137   0.00726   0.01655   0.01982   0.03175
 Alpha virt. eigenvalues --    0.03256   0.03552   0.03580   0.03881   0.04127

  Beta  occ. eigenvalues --  -19.13024 -19.12827 -10.28283 -10.28271 -10.21297
  Beta  occ. eigenvalues --  -10.21103 -10.20910 -10.20877 -10.20782 -10.19907
  Beta  occ. eigenvalues --  -10.19858 -10.19806 -10.19726 -10.19719 -10.19455
  Beta  occ. eigenvalues --  -10.19421 -10.16960  -1.06392  -1.06200  -0.89424
  Beta  occ. eigenvalues --   -0.88309  -0.81360  -0.79571  -0.77844  -0.77001
  Beta  occ. eigenvalues --   -0.71182  -0.68377  -0.66178  -0.64395  -0.60784
  Beta  occ. eigenvalues --   -0.57708  -0.56152  -0.55227  -0.50478  -0.49184
  Beta  occ. eigenvalues --   -0.48806  -0.48439  -0.45824  -0.45800  -0.45157
  Beta  occ. eigenvalues --   -0.44670  -0.44072  -0.42895  -0.42769  -0.41222
  Beta  occ. eigenvalues --   -0.39907  -0.38747  -0.38396  -0.37474  -0.37294
  Beta  occ. eigenvalues --   -0.36616  -0.36417  -0.28964  -0.28567  -0.27889
  Beta  occ. eigenvalues --   -0.27658  -0.27232  -0.26922
  Beta virt. eigenvalues --   -0.11831  -0.07316  -0.03783  -0.02651  -0.00728
  Beta virt. eigenvalues --    0.00137   0.00726   0.01655   0.01982   0.03175
  Beta virt. eigenvalues --    0.03256   0.03552   0.03580   0.03881   0.04127

 Mulliken charges and spin densities:
               1          2
     1  C   -0.508647  -0.000000
     2  C    0.802768   0.000000
     3  C   -0.415651  -0.000000
     4  C   -0.301061  -0.000000
     5  C    0.046220   0.000000
     6  C    0.418749   0.000000
     7  C   -0.627026  -0.000000
     8  O   -0.275585   0.000000
     9  C    0.057293  -0.000000
    10  C    0.104968   0.000000
    11  C   -0.425948  -0.000000
    12  C   -0.435698  -0.000000
    13  C    0.212212   0.000000
    14  C    0.010249  -0.000000
    15  C   -0.823128   0.000000
    16  O   -0.244909  -0.000000
    17  C    0.559012   0.000000
    18  H    0.164409   0.000000
    19  H    0.174179   0.000000
    20  H    0.174070   0.000000
    21  H    0.147681  -0.000000
    22  H    0.222788  -0.000000
    23  H    0.176267  -0.000000
    24  H    0.184644   0.000000
    25  H    0.205560   0.000000
    26  H    0.207850  -0.000000
    27  H    0.188733   0.000000
 Sum of Mulliken charges =  -0.00000  -0.00000

 Dipole moment (field-independent basis, Debye):
    X=             -0.5574    Y=             -0.6912    Z=             -0.0368  Tot=              0.8887
 Quadrupole moment (field-independent basis, Debye-Ang):
   XX=            -68.9510   YY=           -108.7394   ZZ=           -100.8356
   XY=             -8.3854   XZ=             -1.4980   YZ=             -0.2772

  Exact polarizability: 351.439  -9.515 300.906  -7.464  13.159 122.566
 Approx polarizability: 380.220  -1.257 383.089  -7.050  17.227 145.288

                      1                      2                      3
                      A                      A                      A
 Frequencies --     22.6638                61.2258               106.8457
 Red. masses --      6.9346                 4.2409                 4.5599
 Frc consts  --      0.0021                 0.0094                 0.0307
 IR Inten    --     11.4937                 0.1609                 0.0634

                      4                      5                      6
                      A                      A                      A
 Frequencies --    156.0073               198.0068               215.8403
 Red. masses --      6.4759                 2.9205                 4.3768
 Frc consts  --      0.0929                 0.0675                 0.1201
 IR Inten    --      1.3179                 1.5909                 1.9142

                      7                      8                      9
                      A                      A                      A
 Frequencies --    232.7748               243.1573               310.2163
 Red. masses --      1.1610                 4.1651                 5.4353
 Frc consts  --      0.0371                 0.1451                 0.3082
 IR Inten    --      0.4600                 0.7232                 0.4040

                     10                     11                     12
                      A                      A                      A
 Frequencies --    345.1914               380.3445               403.2965
 Red. masses --      6.0711                 6.2678                12.4088
 Frc consts  --      0.4262                 0.5342                 1.1891
 IR Inten    --      0.0037                 0.1933                50.5234

                     13                     14                     15
                      A                      A                      A
 Frequencies --    422.1934               432.1878               439.4998
 Red. masses --      3.2496                 5.0010                 4.4438
 Frc consts  --      0.3413                 0.5504                 0.5057
 IR Inten    --      0.0151                 0.0138                 0.4798

                     16                     17                     18
                      A                      A                      A
 Frequencies --    480.5822               493.2390               514.9910
 Red. masses --      9.9445                 3.7497                 3.6863
 Frc consts  --      1.3532                 0.5375                 0.5760
 IR Inten    --      0.3071                 1.3366                 7.7865

                     19                     20                     21
                      A                      A                      A
 Frequencies --    551.7466               623.3826               665.2338
 Red. masses --      5.3295                 6.4663                 6.5486
 Frc consts  --      0.9559                 1.4805                 1.7074
 IR Inten    --      2.4669                 4.0568                14.9764

                     22                     23                     24
                      A                      A                      A
 Frequencies --    667.5863               700.7670               724.3139
 Red. masses --      4.3885                 7.1442                 2.4597
 Frc consts  --      1.1523                 2.0670                 0.7603
 IR Inten    --      3.2100                 0.3174               107.0216

                     25                     26                     27
                      A                      A                      A
 Frequencies --    738.4534               789.9263               790.5373
 Red. masses --      2.9142                 6.0867                 1.4162
 Frc consts  --      0.9363                 2.2377                 0.5214
 IR Inten    --     47.1122                 7.6517                 1.1479

                     28                     29                     30
                      A                      A                      A
 Frequencies --    815.4408               832.9274               863.7167
 Red. masses --      3.9240                 2.0702                 6.1727
 Frc consts  --      1.5373                 0.8462                 2.7131
 IR Inten    --      4.2681                37.7965                61.7819

                     31                     32                     33
                      A                      A                      A
 Frequencies --    914.6359               927.6257               949.8665
 Red. masses --      1.4160                 6.1695                 1.3572
 Frc consts  --      0.6979                 3.1279                 0.7215
 IR Inten    --      0.0034                21.2868                 0.7795

                     34                     35                     36
                      A                      A                      A
 Frequencies --    982.6678              1002.7129              1019.4587
 Red. masses --      2.8446                 1.3843                 1.3476
 Frc consts  --      1.6184                 0.8201                 0.8252
 IR Inten    --     95.9464                 2.2875                 0.4397

                     37                     38                     39
                      A                      A                      A
 Frequencies --   1023.9548              1041.6938              1056.4482
 Red. masses --      1.3325                 2.0891                 1.5728
 Frc consts  --      0.8231                 1.3356                 1.0342
 IR Inten    --      0.0075                31.9726                 5.8878

                     40                     41                     42
                      A                      A                      A
 Frequencies --   1058.1525              1110.4397              1113.7332
 Red. masses --      2.0857                 2.1316                 2.0853
 Frc consts  --      1.3760                 1.5486                 1.5240
 IR Inten    --      1.4667                 1.6153                 1.6768

                     43                     44                     45
                      A                      A                      A
 Frequencies --   1173.3984              1180.7464              1191.5525
 Red. masses --      1.5226                 1.4114                 1.3125
 Frc consts  --      1.2351                 1.1593                 1.0980
 IR Inten    --      5.9993                24.9819                 1.3782

                     46                     47                     48
                      A                      A                      A
 Frequencies --   1204.9497              1249.7416              1268.1109
 Red. masses --      2.2686                 2.8351                 1.9990
 Frc consts  --      1.9407                 2.6089                 1.8940
 IR Inten    --     16.4759                51.3054               105.7482

                     49                     50                     51
                      A                      A                      A
 Frequencies --   1282.1774              1324.1866              1345.0044
 Red. masses --      3.5631                 2.8705                 6.9620
 Frc consts  --      3.4512                 2.9655                 7.4205
 IR Inten    --    902.8453               136.4346               165.4751

                     52                     53                     54
                      A                      A                      A
 Frequencies --   1359.8580              1410.6442              1445.2111
 Red. masses --      7.8993                 1.2243                 2.3625
 Frc consts  --      8.6065                 1.4354                 2.9073
 IR Inten    --      4.7720                11.6402                61.0620

                     55                     56                     57
                      A                      A                      A
 Frequencies --   1466.7169              1477.3022              1484.5013
 Red. masses --      1.0452                 2.1657                 1.6829
 Frc consts  --      1.3248                 2.7847                 2.1851
 IR Inten    --     11.0359                11.9486                 2.2034

                     58                     59                     60
                      A                      A                      A
 Frequencies --   1491.5754              1506.5096              1598.3777
 Red. masses --      1.7902                 2.5795                 5.9820
 Frc consts  --      2.3467                 3.4493                 9.0045
 IR Inten    --      0.3383                 8.9086               129.1962

                     61                     62                     63
                      A                      A                      A
 Frequencies --   1612.1464              1617.9595              1623.8800
 Red. masses --      6.3521                 6.7272                 5.7347
 Frc consts  --      9.7269                10.3758                 8.9098
 IR Inten    --    108.3376               165.2001                52.2445

                     64                     65                     66
                      A                      A                      A
 Frequencies --   1689.4495              1696.6293              3042.2255
 Red. masses --     11.8351                11.4526                 1.0352
 Frc consts  --     19.9027                19.4235                 5.6451
 IR Inten    --      4.3043               745.5133                25.4853

                     67                     68                     69
                      A                      A                      A
 Frequencies --   3100.3760              3112.5183              3172.5045
 Red. masses --      1.0994                 1.1038                 1.0881
 Frc consts  --      6.2263                 6.3002                 6.4522
 IR Inten    --     14.0838                44.5481                10.3619

                     70                     71                     72
                      A                      A                      A
 Frequencies --   3178.2048              3188.3522              3190.8563
 Red. masses --      1.0875                 1.0931                 1.0917
 Frc consts  --      6.4720                 6.5471                 6.5489
 IR Inten    --      3.5621                22.0813                11.7025

                     73                     74                     75
                      A                      A                      A
 Frequencies --   3204.4674              3207.4976              3209.1314
 Red. masses --      1.0926                 1.0947                 1.0935
 Frc consts  --      6.6104                 6.6355                 6.6351
 IR Inten    --      4.3639                21.0659                 6.4515

 - Thermochemistry -
 -------------------
 Temperature   298.150 Kelvin.  Pressure   1.00000 Atm.
 Atom     1 has atomic number  6 and mass  12.00000

 Molecular mass:   222.06808 amu.
 Principal axes and moments of inertia in atomic units:
                           1         2         3
     Eigenvalues --  2012.400114498.433026499.85435
           X            0.99632   0.08050   0.02941
           Y           -0.07823   0.99435  -0.07176
           Z           -0.03502   0.06920   0.99699
 This molecule is an asymmetric top.
 Rotational symmetry number  1.
 Warning -- assumption of classical behavior for rotation
           may cause significant error
 Rotational temperatures (Kelvin)      0.04304     0.01925     0.01333
 Rotational constants (GHZ):           0.89681     0.40119     0.27766
 Zero-point vibrational energy     542688.6 (Joules/Mol)
                                  129.70569 (Kcal/Mol)
 Warning -- explicit consideration of  19 degrees of freedom as
           vibrations may cause significant error
 Vibrational temperatures:     32.61    88.09   153.73   224.46   284.89
          (Kelvin)            310.55   334.91   349.85   446.33   496.65
                              547.23   580.25   607.44   621.82   632.34
                              691.45   709.66   740.96   793.84   896.91
                              957.12   960.51  1008.25  1042.13  1062.47
                             1136.53  1137.41  1173.24  1198.40  1242.70
                             1315.96  1334.65  1366.65  1413.84  1442.68
                             1466.77  1473.24  1498.77  1519.99  1522.45
                             1597.68  1602.41  1688.26  1698.83  1714.38
                             1733.65  1798.10  1824.53  1844.77  1905.21
                             1935.16  1956.53  2029.60  2079.34  2110.28
                             2125.51  2135.87  2146.04  2167.53  2299.71
                             2319.52  2327.88  2336.40  2430.74  2441.07
                             4377.08  4460.75  4478.22  4564.53  4572.73
                             4587.33  4590.93  4610.51  4614.87  4617.22

 Zero-point correction=                           0.206699 (Hartree/Particle)
 Thermal correction to Energy=                    0.219521
 Thermal correction to Enthalpy=                  0.220465
 Thermal correction to Gibbs Free Energy=         0.166693
 Sum of electronic and zero-point Energies=           -728.078966
 Sum of electronic and thermal Energies=              -728.066145
 Sum of electronic and thermal Enthalpies=            -728.065201
 Sum of electronic and thermal Free Energies=         -728.118973

                     E (Thermal)             CV                S
                      KCal/Mol        Cal/Mol-Kelvin    Cal/Mol-Kelvin
 Total                  137.751             51.532            113.173
 Electronic               0.000              0.000              0.000
 Translational            0.889              2.981             42.096
 Rotational               0.889              2.981             32.442
 Vibrational            135.974             45.570             38.634
 Vibration     1          0.593              1.985              6.386
 Vibration     2          0.597              1.973              4.417
 Vibration     3          0.606              1.944              3.325
 Vibration     4          0.620              1.896              2.598
 Vibration     5          0.637              1.843              2.152
 Vibration     6          0.645              1.817              1.994
 Vibration     7          0.654              1.791              1.857
 Vibration     8          0.659              1.774              1.780
 Vibration     9          0.699              1.654              1.361
 Vibration    10          0.724              1.585              1.188
 Vibration    11          0.750              1.512              1.038
 Vibration    12          0.769              1.463              0.951
 Vibration    13          0.785              1.422              0.885
 Vibration    14          0.793              1.400              0.852
 Vibration    15          0.800              1.384              0.828
 Vibration    16          0.837              1.293              0.708
 Vibration    17          0.849              1.265              0.675
 Vibration    18          0.870              1.217              0.622
 Vibration    19          0.907              1.136              0.541

                           ! Non-Optimized Parameters !
 Normal termination of Gaussian 16 at Sat Feb 10 17:29:13 2024.
