 Gaussian 16, Revision A.03,
 Gaussian 16:  ES64L-G16RevA.03 25-Dec-2016

 ----------------------------------------------------------------------
 #P UB3LYP/6-311++G(d,p) nosym opt freq SCRF=(PCM,Solvent=n,n-DiMethylF
 ormamide)
 ----------------------------------------------------------------------

 -------
 Reduced
 -------
 Symbolic Z-matrix:
 Charge = -4 Multiplicity = 1

 SCF Done:  E(UB3LYP) =  -1936.12796901     A.U. after   18 cycles
 SCF Done:  E(UB3LYP) =  -1936.12802850     A.U. after   12 cycles
 SCF Done:  E(UB3LYP) =  -1936.12803412     A.U. after   12 cycles
 SCF Done:  E(UB3LYP) =  -1936.12803612     A.U. after   10 cycles
 SCF Done:  E(UB3LYP) =  -1936.12803651     A.U. after   10 cycles
 SCF Done:  E(UB3LYP) =  -1936.12803660     A.U. after    9 cycles
 SCF Done:  E(UB3LYP) =  -1936.12803663     A.U. after    9 cycles
 SCF Done:  E(UB3LYP) =  -1936.12803663     A.U. after    9 cycles
 SCF Done:  E(UB3LYP) =  -1936.12803664     A.U. after    8 cycles
 SCF Done:  E(UB3LYP) =  -1936.12803664     A.U. after    8 cycles
 SCF Done:  E(UB3LYP) =  -1936.12803663     A.U. after    8 cycles
 SCF Done:  E(UB3LYP) =  -1936.12803663     A.U. after    8 cycles
 Optimization completed.
    -- Stationary point found.
 Normal termination of Gaussian 16 at Sun Feb 11 16:36:58 2024.

 ----------------------------------------------------------------------
 #P Geom=AllCheck Guess=TCheck SCRF=Check GenChk UB3LYP/6-311++G(d,p) F
 req
 ----------------------------------------------------------------------

 Structure from the checkpoint file:  "226-an.chk"
 -------
 Reduced
 -------
 Charge = -4 Multiplicity = 1

                          Input orientation:
 ---------------------------------------------------------------------
 Center     Atomic      Atomic             Coordinates (Angstroms)
 Number     Number       Type             X           Y           Z
 ---------------------------------------------------------------------
      1          8           0       -6.042963    0.317322   -1.144656
      2         16           0       -5.328992    0.610573    0.139686
      3          8           0       -5.180374    2.075929    0.388581
      4          8           0       -5.961722   -0.102714    1.296524
      5          6           0       -3.672249   -0.065602   -0.035099
      6          6           0       -3.525517   -1.449137   -0.349481
      7          6           0       -2.264169   -1.974025   -0.476424
      8          6           0       -1.083644   -1.193359   -0.302919
      9          6           0        0.205321   -1.809240   -0.454917
     10          8           0        0.346376   -3.066570   -0.766740
     11          6           0        1.326212   -0.938438   -0.233302
     12          6           0        2.653169   -1.449566   -0.342564
     13          6           0        3.766091   -0.673858   -0.136741
     14          6           0        3.599546    0.701825    0.202300
     15          6           0        2.341433    1.240527    0.316381
     16          6           0        1.169687    0.463659    0.105492
     17          6           0       -0.122219    1.089496    0.235274
     18          8           0       -0.262491    2.345968    0.520839
     19          6           0       -1.245234    0.210605    0.025581
     20          6           0       -2.564772    0.726544    0.144667
     21         16           0        5.064029    1.711362    0.467329
     22          8           0        5.827764    1.698092   -0.822376
     23          8           0        4.593198    3.080380    0.835616
     24          8           0        5.837047    1.056342    1.571585
     25          1           0       -4.401594   -2.072389   -0.488405
     26          1           0       -2.132694   -3.023237   -0.715294
     27          1           0        2.761018   -2.497529   -0.598370
     28          1           0        4.760033   -1.097181   -0.227045
     29          1           0        2.217507    2.283174    0.577292
     30          1           0       -2.679798    1.775048    0.385185
 ---------------------------------------------------------------------

 SCF Done:  E(UB3LYP) =  -1936.12803663     A.U. after    1 cycles

 Alpha  occ. eigenvalues --  -89.02728 -89.02724 -19.07388 -19.07386 -19.07264
 Alpha  occ. eigenvalues --  -19.07262 -19.07260 -19.07254 -19.02022 -19.01587
 Alpha  occ. eigenvalues --  -10.17757 -10.17237 -10.17024 -10.17023 -10.15449
 Alpha  occ. eigenvalues --  -10.15441 -10.15342 -10.15327 -10.14901 -10.14888
 Alpha  occ. eigenvalues --  -10.14020 -10.14010 -10.13886 -10.13878  -8.08642
 Alpha  occ. eigenvalues --   -8.08637  -6.04930  -6.04926  -6.04915  -6.04910
 Alpha  occ. eigenvalues --   -6.04777  -6.04773  -1.08825  -1.08815  -0.95268
 Alpha  occ. eigenvalues --   -0.95259  -0.94927  -0.94921  -0.93457  -0.92678
 Alpha  occ. eigenvalues --   -0.83392  -0.82929  -0.76333  -0.73225  -0.73087
 Alpha  occ. eigenvalues --   -0.71814  -0.65377  -0.62981  -0.62092  -0.57382
 Alpha  occ. eigenvalues --   -0.57296  -0.55093  -0.52869  -0.50019  -0.49950
 Alpha  occ. eigenvalues --   -0.46746  -0.45740  -0.44788  -0.43727  -0.43620
 Alpha  occ. eigenvalues --   -0.43613  -0.42668  -0.42573  -0.40703  -0.40477
 Alpha  occ. eigenvalues --   -0.39418  -0.38288  -0.38267  -0.36893  -0.35676
 Alpha  occ. eigenvalues --   -0.34931  -0.34393  -0.32337  -0.32242  -0.32113
 Alpha  occ. eigenvalues --   -0.31744  -0.31711  -0.31585  -0.31342  -0.30396
 Alpha  occ. eigenvalues --   -0.28227  -0.27765  -0.27696  -0.27511  -0.27270
 Alpha  occ. eigenvalues --   -0.27208  -0.23855  -0.23850  -0.23824  -0.22788
 Alpha  occ. eigenvalues --   -0.22108  -0.21490  -0.20061  -0.19436  -0.11003
 Alpha virt. eigenvalues --   -0.03012  -0.00863   0.00495   0.01335   0.01793
 Alpha virt. eigenvalues --    0.01998   0.02937   0.03264   0.04783   0.04951
 Alpha virt. eigenvalues --    0.04963   0.05491   0.05504   0.05656   0.06385

  Beta  occ. eigenvalues --  -89.02728 -89.02724 -19.07388 -19.07386 -19.07264
  Beta  occ. eigenvalues --  -19.07262 -19.07260 -19.07254 -19.02022 -19.01587
  Beta  occ. eigenvalues --  -10.17757 -10.17237 -10.17024 -10.17023 -10.15449
  Beta  occ. eigenvalues --  -10.15441 -10.15342 -10.15327 -10.14901 -10.14888
  Beta  occ. eigenvalues --  -10.14020 -10.14010 -10.13886 -10.13878  -8.08642
  Beta  occ. eigenvalues --   -8.08637  -6.04930  -6.04926  -6.04915  -6.04910
  Beta  occ. eigenvalues --   -6.04777  -6.04773  -1.08825  -1.08815  -0.95268
  Beta  occ. eigenvalues --   -0.95259  -0.94927  -0.94921  -0.93457  -0.92678
  Beta  occ. eigenvalues --   -0.83392  -0.82929  -0.76333  -0.73225  -0.73087
  Beta  occ. eigenvalues --   -0.71814  -0.65377  -0.62981  -0.62092  -0.57382
  Beta  occ. eigenvalues --   -0.57296  -0.55093  -0.52869  -0.50019  -0.49950
  Beta  occ. eigenvalues --   -0.46746  -0.45740  -0.44788  -0.43727  -0.43620
  Beta  occ. eigenvalues --   -0.43613  -0.42668  -0.42573  -0.40703  -0.40477
  Beta  occ. eigenvalues --   -0.39418  -0.38288  -0.38267  -0.36893  -0.35676
  Beta  occ. eigenvalues --   -0.34931  -0.34393  -0.32337  -0.32242  -0.32113
  Beta  occ. eigenvalues --   -0.31744  -0.31711  -0.31585  -0.31342  -0.30396
  Beta  occ. eigenvalues --   -0.28227  -0.27765  -0.27696  -0.27511  -0.27270
  Beta  occ. eigenvalues --   -0.27208  -0.23855  -0.23850  -0.23824  -0.22788
  Beta  occ. eigenvalues --   -0.22108  -0.21490  -0.20061  -0.19436  -0.11003
  Beta virt. eigenvalues --   -0.03012  -0.00863   0.00495   0.01335   0.01793
  Beta virt. eigenvalues --    0.01998   0.02937   0.03264   0.04783   0.04951
  Beta virt. eigenvalues --    0.04963   0.05491   0.05504   0.05656   0.06385

 Mulliken charges and spin densities:
               1          2
     1  O   -0.398766   0.000000
     2  S    0.872423   0.000000
     3  O   -0.437648   0.000000
     4  O   -0.388856   0.000000
     5  C   -1.161652   0.000000
     6  C   -0.532924  -0.000000
     7  C   -0.306913   0.000000
     8  C    0.614088  -0.000000
     9  C   -0.374977  -0.000000
    10  O   -0.663186   0.000000
    11  C    0.613486   0.000000
    12  C   -0.313481   0.000000
    13  C   -0.535623  -0.000000
    14  C   -1.160194  -0.000000
    15  C    0.060749   0.000000
    16  C    0.444997   0.000000
    17  C   -0.931454  -0.000000
    18  O   -0.635112   0.000000
    19  C    0.448708  -0.000000
    20  C    0.061664   0.000000
    21  S    0.870510   0.000000
    22  O   -0.390773   0.000000
    23  O   -0.437474   0.000000
    24  O   -0.395957   0.000000
    25  H    0.192519  -0.000000
    26  H    0.148514   0.000000
    27  H    0.146892   0.000000
    28  H    0.192845  -0.000000
    29  H    0.199933  -0.000000
    30  H    0.197659  -0.000000
 Sum of Mulliken charges =  -4.00000  -0.00000

 Dipole moment (field-independent basis, Debye):
    X=              1.4213    Y=            -12.5058    Z=             -3.0965  Tot=             12.9616
 Quadrupole moment (field-independent basis, Debye-Ang):
   XX=           -548.9646   YY=           -254.2841   ZZ=           -189.1465
   XY=            -31.0976   XZ=             -9.4218   YZ=            -17.3539

  Exact polarizability: 735.750  31.398 429.127   9.989  48.750 237.628
 Approx polarizability: 762.715  26.023 503.889   8.716  58.711 272.037

                      1                      2                      3
                      A                      A                      A
 Frequencies --     12.9523                29.0224                34.7746
 Red. masses --     14.7140                12.7313                12.0343
 Frc consts  --      0.0015                 0.0063                 0.0086
 IR Inten    --      0.2356                 0.2738                 1.4269

                      4                      5                      6
                      A                      A                      A
 Frequencies --     45.3370                72.6509                80.9565
 Red. masses --      6.8685                14.1106                 9.3057
 Frc consts  --      0.0083                 0.0439                 0.0359
 IR Inten    --      2.4449                 3.3186                24.3152

                      7                      8                      9
                      A                      A                      A
 Frequencies --    128.8730               136.1030               151.5749
 Red. masses --     10.7793                 5.5048                 5.8873
 Frc consts  --      0.1055                 0.0601                 0.0797
 IR Inten    --      0.1227                 0.1140                 3.2398

                     10                     11                     12
                      A                      A                      A
 Frequencies --    171.2224               185.7066               227.0275
 Red. masses --     11.6420                15.5204                 9.2916
 Frc consts  --      0.2011                 0.3154                 0.2822
 IR Inten    --      5.6835                 0.0625                16.4745

                     13                     14                     15
                      A                      A                      A
 Frequencies --    230.1887               245.2473               258.7857
 Red. masses --      7.6157                14.4756                11.4539
 Frc consts  --      0.2378                 0.5130                 0.4519
 IR Inten    --      0.2954                 5.2521                 0.3713

                     16                     17                     18
                      A                      A                      A
 Frequencies --    326.1006               346.8190               362.3258
 Red. masses --      8.4608                 6.9768                 8.8570
 Frc consts  --      0.5301                 0.4944                 0.6851
 IR Inten    --      0.9900                 0.0435                 3.5907

                     19                     20                     21
                      A                      A                      A
 Frequencies --    370.9549               374.8551               413.9022
 Red. masses --      8.3629                 7.7016                 3.4525
 Frc consts  --      0.6780                 0.6376                 0.3485
 IR Inten    --      1.0960                44.5381                 6.0476

                     22                     23                     24
                      A                      A                      A
 Frequencies --    429.8504               442.6363               464.8460
 Red. masses --      9.6848                 8.0747                 3.3616
 Frc consts  --      1.0543                 0.9321                 0.4280
 IR Inten    --      1.9342                 1.5827                 0.3195

                     25                     26                     27
                      A                      A                      A
 Frequencies --    471.9239               487.3094               504.4049
 Red. masses --      8.5560                 7.8858                10.7538
 Frc consts  --      1.1227                 1.1033                 1.6120
 IR Inten    --    124.1172                 0.1659                 0.5064

                     28                     29                     30
                      A                      A                      A
 Frequencies --    512.1191               513.0422               519.5966
 Red. masses --     13.4956                13.6793                12.1228
 Frc consts  --      2.0854                 2.1214                 1.9283
 IR Inten    --     62.0568                62.2728                 5.5702

                     31                     32                     33
                      A                      A                      A
 Frequencies --    571.6412               593.7508               595.7685
 Red. masses --      7.3367                13.9359                11.3731
 Frc consts  --      1.4125                 2.8946                 2.3784
 IR Inten    --      0.6149               878.1185               203.4953

                     34                     35                     36
                      A                      A                      A
 Frequencies --    631.8696               645.6940               672.7213
 Red. masses --      4.0917                 7.7431                 7.8551
 Frc consts  --      0.9625                 1.9020                 2.0944
 IR Inten    --     71.6456                66.2180                15.3616

                     37                     38                     39
                      A                      A                      A
 Frequencies --    693.8431               704.7914               707.9287
 Red. masses --      6.5101                 4.2669                 4.2742
 Frc consts  --      1.8465                 1.2488                 1.2621
 IR Inten    --      9.5428                15.7813                26.9532

                     40                     41                     42
                      A                      A                      A
 Frequencies --    719.4344               774.1405               786.5149
 Red. masses --      8.3682                 2.2968                 1.4833
 Frc consts  --      2.5519                 0.8110                 0.5406
 IR Inten    --     77.5568                14.7005                 0.8242

                     43                     44                     45
                      A                      A                      A
 Frequencies --    816.2591               848.4015               919.1603
 Red. masses --      3.5693                 7.1387                 5.6174
 Frc consts  --      1.4012                 3.0274                 2.7962
 IR Inten    --     30.9574                 5.3280               108.3233

                     46                     47                     48
                      A                      A                      A
 Frequencies --    932.5018               935.9066               941.1007
 Red. masses --      1.3457                 1.3797                 9.8340
 Frc consts  --      0.6894                 0.7121                 5.1316
 IR Inten    --      7.0516                41.8364               852.9648

                     49                     50                     51
                      A                      A                      A
 Frequencies --    960.3717               962.9786               972.4655
 Red. masses --      1.3566                11.3922                 1.3073
 Frc consts  --      0.7372                 6.2243                 0.7284
 IR Inten    --      5.9486                56.0911                 7.0420

                     52                     53                     54
                      A                      A                      A
 Frequencies --    991.4549              1041.4612              1052.1639
 Red. masses --      3.4523                 2.0435                 2.8269
 Frc consts  --      1.9995                 1.3059                 1.8438
 IR Inten    --    215.4143                94.1551              1113.6775

                     55                     56                     57
                      A                      A                      A
 Frequencies --   1081.0212              1081.6569              1092.4095
 Red. masses --     20.2630                20.2342                 3.9674
 Frc consts  --     13.9515                13.9481                 2.7895
 IR Inten    --    484.6749               732.4629              1374.2609

                     58                     59                     60
                      A                      A                      A
 Frequencies --   1101.1946              1106.2179              1111.7667
 Red. masses --      7.6091                 8.5509                 2.0006
 Frc consts  --      5.4364                 6.1651                 1.4569
 IR Inten    --    131.2626               204.2264               198.6218

                     61                     62                     63
                      A                      A                      A
 Frequencies --   1151.1313              1174.1397              1177.5537
 Red. masses --      1.6605                 3.1938                 6.2319
 Frc consts  --      1.2964                 2.5941                 5.0913
 IR Inten    --    369.1468                63.8657               417.6797

                     64                     65                     66
                      A                      A                      A
 Frequencies --   1186.4645              1231.3346              1309.3620
 Red. masses --      1.6700                 1.9450                 5.3076
 Frc consts  --      1.3851                 1.7375                 5.3613
 IR Inten    --    168.0564               180.0273               169.6878

                     67                     68                     69
                      A                      A                      A
 Frequencies --   1314.2348              1332.0139              1350.7629
 Red. masses --      2.2779                 4.6296                 6.6844
 Frc consts  --      2.3180                 4.8397                 7.1858
 IR Inten    --     62.1248              2220.8089               830.1887

                     70                     71                     72
                      A                      A                      A
 Frequencies --   1414.3157              1440.3932              1459.6756
 Red. masses --      6.7639                 2.9126                 7.8242
 Frc consts  --      7.9715                 3.5604                 9.8221
 IR Inten    --    821.3212                28.6449                 2.6613

                     73                     74                     75
                      A                      A                      A
 Frequencies --   1469.9199              1492.9045              1519.5609
 Red. masses --      2.8305                 7.4981                 6.5400
 Frc consts  --      3.6033                 9.8461                 8.8974
 IR Inten    --     44.5940                23.2694                74.0718

                     76                     77                     78
                      A                      A                      A
 Frequencies --   1571.5601              1594.7212              1595.4843
 Red. masses --      9.0445                 6.2340                 6.3592
 Frc consts  --     13.1613                 9.3409                 9.5376
 IR Inten    --      1.3323                30.5197                15.8453

                     79                     80                     81
                      A                      A                      A
 Frequencies --   3159.0663              3164.9820              3177.0042
 Red. masses --      1.0863                 1.0853                 1.0944
 Frc consts  --      6.3874                 6.4053                 6.5081
 IR Inten    --      3.7861                 1.6309                43.4189

                     82                     83                     84
                      A                      A                      A
 Frequencies --   3181.4887              3193.0535              3202.6075
 Red. masses --      1.0941                 1.0898                 1.0886
 Frc consts  --      6.5245                 6.5462                 6.5786
 IR Inten    --     47.9961                 6.3497                 5.2548

 - Thermochemistry -
 -------------------
 Temperature   298.150 Kelvin.  Pressure   1.00000 Atm.
 Atom     1 has atomic number  8 and mass  15.99491

 Molecular mass:   365.95041 amu.
 Principal axes and moments of inertia in atomic units:
                           1         2         3
     Eigenvalues --  3276.86686********************
           X            0.99395  -0.10971  -0.00499
           Y            0.10533   0.96516  -0.23951
           Z            0.03110   0.23754   0.97088
 This molecule is an asymmetric top.
 Rotational symmetry number  1.
 Warning -- assumption of classical behavior for rotation
           may cause significant error
 Rotational temperatures (Kelvin)      0.02643     0.00407     0.00363
 Rotational constants (GHZ):           0.55075     0.08476     0.07562
 Zero-point vibrational energy     469303.6 (Joules/Mol)
                                  112.16625 (Kcal/Mol)
 Warning -- explicit consideration of  33 degrees of freedom as
           vibrations may cause significant error
 Vibrational temperatures:     18.64    41.76    50.03    65.23   104.53
          (Kelvin)            116.48   185.42   195.82   218.08   246.35
                              267.19   326.64   331.19   352.86   372.33
                              469.19   499.00   521.31   533.72   539.33
                              595.51   618.46   636.85   668.81   678.99
                              701.13   725.73   736.83   738.15   747.58
                              822.46   854.27   857.18   909.12   929.01
                              967.90   998.29  1014.04  1018.55  1035.11
                             1113.82  1131.62  1174.41  1220.66  1322.47
                             1341.66  1346.56  1354.03  1381.76  1385.51
                             1399.16  1426.48  1498.43  1513.83  1555.35
                             1556.26  1571.73  1584.37  1591.60  1599.58
                             1656.22  1689.33  1694.24  1707.06  1771.62
                             1883.88  1890.89  1916.47  1943.45  2034.88
                             2072.40  2100.15  2114.89  2147.96  2186.31
                             2261.12  2294.45  2295.55  4545.19  4553.70
                             4571.00  4577.45  4594.09  4607.84

 Zero-point correction=                           0.178748 (Hartree/Particle)
 Thermal correction to Energy=                    0.198441
 Thermal correction to Enthalpy=                  0.199386
 Thermal correction to Gibbs Free Energy=         0.127632
 Sum of electronic and zero-point Energies=          -1935.949288
 Sum of electronic and thermal Energies=             -1935.929595
 Sum of electronic and thermal Enthalpies=           -1935.928651
 Sum of electronic and thermal Free Energies=        -1936.000405

                     E (Thermal)             CV                S
                      KCal/Mol        Cal/Mol-Kelvin    Cal/Mol-Kelvin
 Total                  124.524             75.181            151.018
 Electronic               0.000              0.000              0.000
 Translational            0.889              2.981             43.585
 Rotational               0.889              2.981             35.764
 Vibrational            122.746             69.220             71.670
 Vibration     1          0.593              1.987              7.497
 Vibration     2          0.593              1.984              5.895
 Vibration     3          0.594              1.983              5.537
 Vibration     4          0.595              1.979              5.011
 Vibration     5          0.599              1.967              4.080
 Vibration     6          0.600              1.962              3.868
 Vibration     7          0.611              1.924              2.963
 Vibration     8          0.614              1.917              2.858
 Vibration     9          0.619              1.901              2.652
 Vibration    10          0.626              1.878              2.422
 Vibration    11          0.632              1.859              2.270
 Vibration    12          0.651              1.800              1.902
 Vibration    13          0.652              1.795              1.877
 Vibration    14          0.660              1.771              1.764
 Vibration    15          0.668              1.748              1.670
 Vibration    16          0.710              1.623              1.279
 Vibration    17          0.725              1.582              1.181
 Vibration    18          0.736              1.550              1.112
 Vibration    19          0.743              1.532              1.076
 Vibration    20          0.746              1.524              1.060
 Vibration    21          0.777              1.440              0.913
 Vibration    22          0.791              1.405              0.859
 Vibration    23          0.802              1.377              0.818
 Vibration    24          0.822              1.328              0.752
 Vibration    25          0.829              1.312              0.732
 Vibration    26          0.843              1.278              0.691
 Vibration    27          0.860              1.240              0.647
 Vibration    28          0.867              1.223              0.629
 Vibration    29          0.868              1.221              0.626
 Vibration    30          0.875              1.207              0.611
 Vibration    31          0.928              1.093              0.501
 Vibration    32          0.951              1.045              0.461
 Vibration    33          0.954              1.041              0.457

 Optimization completed.
    -- Stationary point found.
 Normal termination of Gaussian 16 at Sun Feb 11 19:06:15 2024.
