 Gaussian 16, Revision A.03,
 Gaussian 16:  ES64L-G16RevA.03 25-Dec-2016

 ----------------------------------------------------------------------
 #P UB3LYP/6-311++G(d,p) nosym opt freq SCRF=(PCM,Solvent=n,n-DiMethylF
 ormamide)
 ----------------------------------------------------------------------

 --------
 Oxidized
 --------
 Symbolic Z-matrix:
 Charge =  0 Multiplicity = 1

 SCF Done:  E(UB3LYP) =  -652.224512299     A.U. after   15 cycles
 SCF Done:  E(UB3LYP) =  -652.224624054     A.U. after   13 cycles
 SCF Done:  E(UB3LYP) =  -652.223826061     A.U. after   14 cycles
 SCF Done:  E(UB3LYP) =  -652.224522792     A.U. after   14 cycles
 SCF Done:  E(UB3LYP) =  -652.224763503     A.U. after   10 cycles
 SCF Done:  E(UB3LYP) =  -652.224852595     A.U. after   13 cycles
 SCF Done:  E(UB3LYP) =  -652.224910950     A.U. after   13 cycles
 SCF Done:  E(UB3LYP) =  -652.224948593     A.U. after   13 cycles
 SCF Done:  E(UB3LYP) =  -652.225017365     A.U. after   13 cycles
 SCF Done:  E(UB3LYP) =  -652.221408532     A.U. after   14 cycles
 SCF Done:  E(UB3LYP) =  -652.225305032     A.U. after   12 cycles
 SCF Done:  E(UB3LYP) =  -652.223560318     A.U. after   16 cycles
 SCF Done:  E(UB3LYP) =  -652.225687294     A.U. after   13 cycles
 SCF Done:  E(UB3LYP) =  -652.225875947     A.U. after   13 cycles
 SCF Done:  E(UB3LYP) =  -652.226004232     A.U. after   14 cycles
 SCF Done:  E(UB3LYP) =  -652.226021957     A.U. after   11 cycles
 SCF Done:  E(UB3LYP) =  -652.226024733     A.U. after   11 cycles
 SCF Done:  E(UB3LYP) =  -652.226024935     A.U. after   11 cycles
 SCF Done:  E(UB3LYP) =  -652.226025138     A.U. after   10 cycles
 Optimization completed.
    -- Stationary point found.
 Normal termination of Gaussian 16 at Sat Feb 10 12:11:32 2024.

 ----------------------------------------------------------------------
 #P Geom=AllCheck Guess=TCheck SCRF=Check GenChk UB3LYP/6-311++G(d,p) F
 req
 ----------------------------------------------------------------------

 Structure from the checkpoint file:  "061.chk"
 --------
 Oxidized
 --------
 Charge =  0 Multiplicity = 1

                          Input orientation:
 ---------------------------------------------------------------------
 Center     Atomic      Atomic             Coordinates (Angstroms)
 Number     Number       Type             X           Y           Z
 ---------------------------------------------------------------------
      1          6           0       -0.002132   -0.167837    2.398035
      2          6           0       -0.660202   -0.956355    1.331485
      3          6           0       -0.515514   -0.624419    0.042611
      4          6           0        0.305002    0.536689   -0.371382
      5          6           0        0.951798    1.353701    0.704230
      6          6           0        0.809614    1.005048    1.992554
      7          8           0       -0.123993   -0.467712    3.578187
      8          8           0        0.452946    0.817635   -1.551143
      9          1           0       -1.253625   -1.805386    1.650421
     10          1           0       -0.981979   -1.185482   -0.759032
     11          6           0        1.852002    2.490135    0.245260
     12          6           0        1.314868    3.924932    0.241271
     13          6           0       -0.087662    3.967319   -0.403179
     14          6           0        1.216416    4.402174    1.712866
     15          6           0        2.283712    4.830913   -0.533209
     16          8           0        2.979865    2.197756   -0.094643
     17          1           0       -0.062087    3.627364   -1.440709
     18          1           0       -0.453573    4.996978   -0.390688
     19          1           0       -0.808595    3.354910    0.144352
     20          1           0        0.486574    3.825267    2.284142
     21          1           0        0.891828    5.445851    1.720918
     22          1           0        2.183963    4.344141    2.217945
     23          1           0        2.386125    4.505510   -1.571131
     24          1           0        3.276497    4.834062   -0.079841
     25          1           0        1.902046    5.854905   -0.531588
     26          1           0        1.281725    1.550521    2.801608
 ---------------------------------------------------------------------

 SCF Done:  E(UB3LYP) =  -652.226025138     A.U. after    2 cycles

 Alpha  occ. eigenvalues --  -19.15410 -19.15119 -19.14496 -10.30150 -10.29613
 Alpha  occ. eigenvalues --  -10.29063 -10.23294 -10.22329 -10.22059 -10.21962
 Alpha  occ. eigenvalues --  -10.20743 -10.17343 -10.17015 -10.16358  -1.08653
 Alpha  occ. eigenvalues --   -1.07871  -1.07564  -0.87794  -0.83667  -0.80859
 Alpha  occ. eigenvalues --   -0.72686  -0.70026  -0.69715  -0.67554  -0.63754
 Alpha  occ. eigenvalues --   -0.61134  -0.54720  -0.53625  -0.51569  -0.49931
 Alpha  occ. eigenvalues --   -0.48830  -0.47987  -0.46176  -0.45989  -0.45657
 Alpha  occ. eigenvalues --   -0.44374  -0.44014  -0.43012  -0.42299  -0.40978
 Alpha  occ. eigenvalues --   -0.39570  -0.38720  -0.38438  -0.37701  -0.34625
 Alpha  occ. eigenvalues --   -0.34496  -0.32156  -0.31288  -0.30230  -0.29945
 Alpha  occ. eigenvalues --   -0.27090
 Alpha virt. eigenvalues --   -0.14629  -0.05534  -0.03995  -0.01439  -0.00704
 Alpha virt. eigenvalues --    0.00447   0.01083   0.01828   0.02390   0.02674
 Alpha virt. eigenvalues --    0.03762   0.03901   0.03979   0.04781   0.05343

  Beta  occ. eigenvalues --  -19.15410 -19.15119 -19.14496 -10.30150 -10.29613
  Beta  occ. eigenvalues --  -10.29063 -10.23294 -10.22329 -10.22059 -10.21962
  Beta  occ. eigenvalues --  -10.20743 -10.17343 -10.17015 -10.16358  -1.08653
  Beta  occ. eigenvalues --   -1.07871  -1.07564  -0.87794  -0.83667  -0.80859
  Beta  occ. eigenvalues --   -0.72686  -0.70026  -0.69715  -0.67554  -0.63754
  Beta  occ. eigenvalues --   -0.61134  -0.54720  -0.53625  -0.51569  -0.49931
  Beta  occ. eigenvalues --   -0.48830  -0.47987  -0.46176  -0.45989  -0.45657
  Beta  occ. eigenvalues --   -0.44374  -0.44014  -0.43012  -0.42299  -0.40978
  Beta  occ. eigenvalues --   -0.39570  -0.38720  -0.38438  -0.37701  -0.34625
  Beta  occ. eigenvalues --   -0.34496  -0.32156  -0.31288  -0.30230  -0.29945
  Beta  occ. eigenvalues --   -0.27090
  Beta virt. eigenvalues --   -0.14629  -0.05534  -0.03995  -0.01439  -0.00704
  Beta virt. eigenvalues --    0.00447   0.01083   0.01828   0.02390   0.02674
  Beta virt. eigenvalues --    0.03762   0.03901   0.03979   0.04781   0.05343

 Mulliken charges and spin densities:
               1          2
     1  C   -0.571355  -0.000000
     2  C    0.239607   0.000000
     3  C    0.064806  -0.000000
     4  C   -0.677163   0.000000
     5  C    1.225552  -0.000000
     6  C   -0.222117  -0.000000
     7  O   -0.272069   0.000000
     8  O   -0.231056   0.000000
     9  H    0.253555   0.000000
    10  H    0.252722   0.000000
    11  C   -0.395665  -0.000000
    12  C    0.683387   0.000000
    13  C   -0.706893   0.000000
    14  C   -0.648249   0.000000
    15  C   -0.538912  -0.000000
    16  O   -0.218062   0.000000
    17  H    0.179145  -0.000000
    18  H    0.169431  -0.000000
    19  H    0.143492  -0.000000
    20  H    0.151434  -0.000000
    21  H    0.167154   0.000000
    22  H    0.179782  -0.000000
    23  H    0.171350  -0.000000
    24  H    0.171776  -0.000000
    25  H    0.158727   0.000000
    26  H    0.269620   0.000000
 Sum of Mulliken charges =  -0.00000  -0.00000

 Dipole moment (field-independent basis, Debye):
    X=             -3.3553    Y=              1.5838    Z=              0.7702  Tot=              3.7895
 Quadrupole moment (field-independent basis, Debye-Ang):
   XX=            -93.2590   YY=            -66.3811   ZZ=            -99.7822
   XY=             -0.9873   XZ=              5.3646   YZ=              9.0360

  Exact polarizability: 149.355  22.167 170.590 -14.296 -27.246 235.021
 Approx polarizability: 167.886  16.196 176.694 -22.836 -39.082 311.411

                      1                      2                      3
                      A                      A                      A
 Frequencies --     35.9400                47.5772                72.1242
 Red. masses --      3.1529                 5.9562                 4.9690
 Frc consts  --      0.0024                 0.0079                 0.0152
 IR Inten    --      0.4005                 5.0943                 4.6236

                      4                      5                      6
                      A                      A                      A
 Frequencies --     95.6860               141.8126               197.6607
 Red. masses --      8.1789                 8.9693                 4.8544
 Frc consts  --      0.0441                 0.1063                 0.1117
 IR Inten    --     15.5487                 2.2394                 2.9609

                      7                      8                      9
                      A                      A                      A
 Frequencies --    208.7583               233.1535               251.7726
 Red. masses --      1.7359                 1.2273                 3.6719
 Frc consts  --      0.0446                 0.0393                 0.1371
 IR Inten    --      0.5871                 0.4497                 0.2824

                     10                     11                     12
                      A                      A                      A
 Frequencies --    265.5546               277.9494               286.1899
 Red. masses --      1.9185                 1.5523                 1.1877
 Frc consts  --      0.0797                 0.0707                 0.0573
 IR Inten    --      3.3874                 0.4587                 0.8629

                     13                     14                     15
                      A                      A                      A
 Frequencies --    325.6332               354.9304               373.2789
 Red. masses --      3.9895                 2.7084                 2.2844
 Frc consts  --      0.2492                 0.2010                 0.1875
 IR Inten    --      5.0475                 5.6550                 0.1233

                     16                     17                     18
                      A                      A                      A
 Frequencies --    395.8135               425.4818               465.8561
 Red. masses --      3.0024                 8.4172                 9.7626
 Frc consts  --      0.2771                 0.8978                 1.2483
 IR Inten    --      6.2014                36.7352                 1.6429

                     19                     20                     21
                      A                      A                      A
 Frequencies --    493.9012               511.8135               593.7307
 Red. masses --      2.9794                 5.3337                 4.3981
 Frc consts  --      0.4282                 0.8232                 0.9135
 IR Inten    --      6.4209                11.2593                 7.8241

                     22                     23                     24
                      A                      A                      A
 Frequencies --    614.7479               664.2026               719.8272
 Red. masses --      3.5563                 4.3488                 5.4474
 Frc consts  --      0.7919                 1.1304                 1.6630
 IR Inten    --      2.6572                 2.9981                 0.1777

                     25                     26                     27
                      A                      A                      A
 Frequencies --    783.8110               793.8183               824.7228
 Red. masses --      4.2855                 2.9457                 4.3500
 Frc consts  --      1.5512                 1.0936                 1.7432
 IR Inten    --     14.1251                 3.6579                 4.6900

                     28                     29                     30
                      A                      A                      A
 Frequencies --    839.6380               855.5752               924.9073
 Red. masses --      2.9039                 3.3532                 2.3338
 Frc consts  --      1.2062                 1.4462                 1.1763
 IR Inten    --      9.9919                29.4002               144.2290

                     31                     32                     33
                      A                      A                      A
 Frequencies --    937.0781               945.3270               962.0382
 Red. masses --      1.7791                 1.6052                 2.0626
 Frc consts  --      0.9205                 0.8452                 1.1247
 IR Inten    --     18.9067                 6.6773                65.0897

                     34                     35                     36
                      A                      A                      A
 Frequencies --    968.4386              1018.1413              1034.0336
 Red. masses --      1.2077                 1.2664                 1.4492
 Frc consts  --      0.6674                 0.7734                 0.9130
 IR Inten    --      0.5099                 0.0129                 0.4756

                     37                     38                     39
                      A                      A                      A
 Frequencies --   1044.4849              1106.4124              1143.4825
 Red. masses --      1.5181                 1.8803                 2.3480
 Frc consts  --      0.9758                 1.3562                 1.8088
 IR Inten    --      3.8457                18.1950               144.0365

                     40                     41                     42
                      A                      A                      A
 Frequencies --   1210.6098              1230.8454              1236.3954
 Red. masses --      2.4922                 1.7948                 2.7698
 Frc consts  --      2.1520                 1.6020                 2.4947
 IR Inten    --      4.7696                38.5550                 3.9259

                     43                     44                     45
                      A                      A                      A
 Frequencies --   1282.8636              1290.2248              1345.9605
 Red. masses --      3.0054                 3.2223                 2.0158
 Frc consts  --      2.9142                 3.1604                 2.1516
 IR Inten    --     53.7743                94.6591                72.2257

                     46                     47                     48
                      A                      A                      A
 Frequencies --   1391.2297              1394.3366              1398.2434
 Red. masses --      1.8886                 1.1944                 1.2185
 Frc consts  --      2.1537                 1.3682                 1.4036
 IR Inten    --      1.6643                11.2561                 8.1766

                     49                     50                     51
                      A                      A                      A
 Frequencies --   1425.1809              1476.6223              1480.7475
 Red. masses --      1.2162                 1.0468                 1.0433
 Frc consts  --      1.4555                 1.3447                 1.3478
 IR Inten    --      6.7533                 0.6616                 1.0217

                     52                     53                     54
                      A                      A                      A
 Frequencies --   1482.9813              1494.5965              1496.6398
 Red. masses --      1.0445                 1.0478                 1.0524
 Frc consts  --      1.3535                 1.3790                 1.3889
 IR Inten    --      2.4856                 9.7633                17.5952

                     55                     56                     57
                      A                      A                      A
 Frequencies --   1512.9978              1644.2035              1671.8916
 Red. masses --      1.0659                 8.1895                10.3011
 Frc consts  --      1.4376                13.0442                16.9648
 IR Inten    --     40.1648                25.7853                 6.5104

                     58                     59                     60
                      A                      A                      A
 Frequencies --   1693.5033              1711.0468              1742.7762
 Red. masses --     11.6869                 8.3992                12.5609
 Frc consts  --     19.7480                14.4881                22.4779
 IR Inten    --   1021.6886                69.0778               405.6876

                     61                     62                     63
                      A                      A                      A
 Frequencies --   3029.2373              3030.8076              3037.4141
 Red. masses --      1.0340                 1.0343                 1.0354
 Frc consts  --      5.5902                 5.5980                 5.6282
 IR Inten    --     32.9150                34.2961                21.0397

                     64                     65                     66
                      A                      A                      A
 Frequencies --   3095.0062              3096.0488              3100.6124
 Red. masses --      1.1025                 1.1025                 1.1025
 Frc consts  --      6.2221                 6.2265                 6.2450
 IR Inten    --     15.2444                35.3955                38.1180

                     67                     68                     69
                      A                      A                      A
 Frequencies --   3106.1443              3107.3245              3109.6653
 Red. masses --      1.1028                 1.1022                 1.1021
 Frc consts  --      6.2686                 6.2702                 6.2789
 IR Inten    --     35.8467                42.8897                45.5133

                     70                     71                     72
                      A                      A                      A
 Frequencies --   3184.5604              3188.9254              3200.5658
 Red. masses --      1.0879                 1.0929                 1.0996
 Frc consts  --      6.5005                 6.5481                 6.6367
 IR Inten    --      2.3495                 0.8708                 1.6207

 - Thermochemistry -
 -------------------
 Temperature   298.150 Kelvin.  Pressure   1.00000 Atm.
 Atom     1 has atomic number  6 and mass  12.00000

 Molecular mass:   192.07864 amu.
 Principal axes and moments of inertia in atomic units:
                           1         2         3
     Eigenvalues --  1529.886483714.153304369.12034
           X            0.36074   0.10194   0.92708
           Y            0.86639   0.33140  -0.37356
           Z           -0.34531   0.93797   0.03123
 This molecule is an asymmetric top.
 Rotational symmetry number  1.
 Warning -- assumption of classical behavior for rotation
           may cause significant error
 Rotational temperatures (Kelvin)      0.05661     0.02332     0.01982
 Rotational constants (GHZ):           1.17966     0.48591     0.41307
 Zero-point vibrational energy     539130.1 (Joules/Mol)
                                  128.85519 (Kcal/Mol)
 Warning -- explicit consideration of  22 degrees of freedom as
           vibrations may cause significant error
 Vibrational temperatures:     51.71    68.45   103.77   137.67   204.04
          (Kelvin)            284.39   300.36   335.46   362.24   382.07
                              399.91   411.76   468.51   510.67   537.07
                              569.49   612.17   670.26   710.61   736.39
                              854.25   884.49   955.64  1035.67  1127.73
                             1142.13  1186.59  1208.05  1230.98  1330.74
                             1348.25  1360.11  1384.16  1393.37  1464.88
                             1487.74  1502.78  1591.88  1645.22  1741.80
                             1770.91  1778.90  1845.75  1856.35  1936.54
                             2001.67  2006.14  2011.76  2050.52  2124.53
                             2130.47  2133.68  2150.39  2153.33  2176.87
                             2365.64  2405.48  2436.57  2461.81  2507.47
                             4358.40  4360.66  4370.16  4453.02  4454.52
                             4461.09  4469.05  4470.75  4474.11  4581.87
                             4588.15  4604.90

 Zero-point correction=                           0.205344 (Hartree/Particle)
 Thermal correction to Energy=                    0.219336
 Thermal correction to Enthalpy=                  0.220280
 Thermal correction to Gibbs Free Energy=         0.164366
 Sum of electronic and zero-point Energies=           -652.020681
 Sum of electronic and thermal Energies=              -652.006689
 Sum of electronic and thermal Enthalpies=            -652.005745
 Sum of electronic and thermal Free Energies=         -652.061659

                     E (Thermal)             CV                S
                      KCal/Mol        Cal/Mol-Kelvin    Cal/Mol-Kelvin
 Total                  137.635             52.206            117.682
 Electronic               0.000              0.000              0.000
 Translational            0.889              2.981             41.664
 Rotational               0.889              2.981             31.585
 Vibrational            135.858             46.244             44.433
 Vibration     1          0.594              1.982              5.471
 Vibration     2          0.595              1.978              4.916
 Vibration     3          0.598              1.967              4.095
 Vibration     4          0.603              1.952              3.540
 Vibration     5          0.615              1.911              2.779
 Vibration     6          0.637              1.843              2.155
 Vibration     7          0.642              1.827              2.055
 Vibration     8          0.654              1.790              1.855
 Vibration     9          0.664              1.760              1.718
 Vibration    10          0.671              1.736              1.625
 Vibration    11          0.679              1.714              1.546
 Vibration    12          0.684              1.699              1.496
 Vibration    13          0.710              1.624              1.282
 Vibration    14          0.731              1.565              1.144
 Vibration    15          0.745              1.527              1.066
 Vibration    16          0.763              1.479              0.978
 Vibration    17          0.787              1.415              0.874
 Vibration    18          0.823              1.326              0.749
 Vibration    19          0.850              1.264              0.674
 Vibration    20          0.867              1.224              0.629
 Vibration    21          0.951              1.045              0.461
 Vibration    22          0.974              1.001              0.425

 Optimization completed.
    -- Stationary point found.
 Normal termination of Gaussian 16 at Sat Feb 10 12:58:26 2024.
