 Q-Chem 5.4, Q-Chem, Inc., Pleasanton, CA (2021)
 Q-Chem 5.4.0 for Intel X86 EM64T Linux

User input:
--------------------------------------------------------------
$molecule
-1 2
C                  5.8055240000     -5.2071590000      1.1294160000
C                  6.5995600000     -5.2376630000     -0.0042490000
C                  6.3666000000     -4.3208210000     -1.0486830000
C                  4.7618810000     -4.2728410000      1.2591830000
C                  4.5271270000     -3.3490480000      0.2079680000
C                  5.3472970000     -3.3933430000     -0.9398340000
C                  3.9525590000     -4.2682440000      2.4948440000
C                  2.9112700000     -3.2687680000      2.5341620000
C                  2.6254960000     -2.3879540000      1.5007090000
C                  3.4458950000     -2.3783360000      0.2925030000
O                  4.1843500000     -5.0666960000      3.4294000000
O                  3.1979690000     -1.5447380000     -0.6285350000
H                  5.9622760000     -5.8970030000      1.9505780000
H                  7.4006040000     -5.9659410000     -0.0889390000
H                  5.1466760000     -2.6774320000     -1.7284820000
Cl                 2.0262680000     -3.1643990000      4.0674910000
H                  6.9886640000     -4.3431030000     -1.9387730000
N                  1.6272160000     -1.4051400000      1.5157600000
C                  0.2195450000     -1.7808640000      1.6736180000
C                 -0.6641400000     -0.5338160000      1.7214490000
C                 -2.1535310000     -0.8687040000      1.8451990000
H                  1.7562390000     -0.8847210000      0.6468600000
H                  0.0990650000     -2.3483570000      2.5961910000
H                 -0.1123280000     -2.4337290000      0.8474630000
H                 -0.4964220000      0.0636330000      0.8163610000
H                 -0.3444360000      0.0862480000      2.5655160000
H                 -2.4992360000     -1.4660470000      0.9950030000
H                 -2.7650650000      0.0381860000      1.8840410000
H                 -2.3542620000     -1.4441820000      2.7548310000
$end
$rem
MAX_SCF_CYCLES=200
BASIS  =  6-311++G(d,p)
GUI  =  2
JOB_TYPE  =  SP
METHOD  =  B3LYP
SOLVENT_METHOD = COSMO
$end
$solvent
dielectric 37.219
opticaldielectric 1.43
$end

--------------------------------------------------------------

             Standard Nuclear Orientation (Angstroms)
    I     Atom           X                Y                Z
 ----------------------------------------------------------------
    1      C       3.4985976102    -0.7805527956    -0.3469351141
    2      C       4.4809806143     0.1941007007    -0.3868624311
    3      C       4.1352718369     1.5467327818    -0.1955932769
    4      C       2.1517861727    -0.4441472830    -0.1190961497
    5      C       1.8031424683     0.9177275631     0.0740369514
    6      C       2.8177037694     1.8980144672     0.0316900620
    7      C       1.1419680234    -1.5209932253    -0.0685841618
    8      C      -0.2090925946    -1.0745139028     0.1765125177
    9      C      -0.5865729352     0.2533864267     0.3169208226
   10      C       0.4193192698     1.3119403529     0.2934001719
   11      O       1.4614016072    -2.7219858263    -0.2108041997
   12      O       0.0668060879     2.5172804262     0.4593932100
   13      H       3.7338481206    -1.8292501254    -0.4871280955
   14      H       5.5159346535    -0.0824471705    -0.5646942140
   15      H       2.5248840175     2.9307575217     0.1814945668
   16      Cl     -1.4045287805    -2.3691477771     0.3766991987
   17      H       4.9046617630     2.3127696301    -0.2263667145
   18      N      -1.8871387077     0.7127682945     0.5622977176
   19      C      -2.9627567731     0.4390526165    -0.3946509860
   20      C      -4.2926005332     0.9861600252     0.1254497304
   21      C      -5.4478303001     0.7635358120    -0.8551787574
   22      H      -1.7893941107     1.7194529956     0.7019472304
   23      H      -3.0456883928    -0.6370328907    -0.5458693822
   24      H      -2.7420211897     0.8872345447    -1.3791880558
   25      H      -4.1871965742     2.0590172410     0.3306967108
   26      H      -4.5135496074     0.5074571960     1.0852227349
   27      H      -5.2577964816     1.2587048655    -1.8132281306
   28      H      -6.3893486848     1.1569666957    -0.4593413195
   29      H      -5.5925346260    -0.3025143909    -1.0588840867
 ----------------------------------------------------------------

   10   -1168.3024030266      6.16e-06  Convergence criterion met
 Total energy in the final basis set =    -1168.3024030266
    4   -1168.3851685122      9.78e-06  Convergence criterion met
 Total energy in the final basis set =    -1168.3851685122

                    Orbital Energies (a.u.)
 --------------------------------------------------------------

 Alpha MOs
 -- Occupied --
******** -19.0886 -19.0834 -14.3144 -10.2364 -10.2302 -10.2176 -10.2148
-10.1901 -10.1785 -10.1779 -10.1745 -10.1739 -10.1724 -10.1722 -10.1617
-10.1539  -9.4615  -7.2258  -7.2169  -7.2159  -1.0159  -1.0126  -0.9265
 -0.8646  -0.8545  -0.7953  -0.7730  -0.7540  -0.7277  -0.6848  -0.6600
 -0.6176  -0.6022  -0.5891  -0.5662  -0.5295  -0.5070  -0.4861  -0.4718
 -0.4646  -0.4526  -0.4378  -0.4312  -0.4246  -0.4219  -0.4205  -0.4096
 -0.3968  -0.3953  -0.3831  -0.3687  -0.3624  -0.3537  -0.3446  -0.3423
 -0.3358  -0.3330  -0.3046  -0.2920  -0.2667  -0.2611  -0.2603  -0.2506
 -0.2233  -0.1562

 Beta MOs
 -- Occupied --
******** -19.0822 -19.0784 -14.3137 -10.2350 -10.2277 -10.2169 -10.2133
-10.1900 -10.1779 -10.1774 -10.1744 -10.1733 -10.1724 -10.1721 -10.1617
-10.1539  -9.4615  -7.2258  -7.2168  -7.2159  -1.0063  -1.0026  -0.9238
 -0.8624  -0.8536  -0.7920  -0.7719  -0.7519  -0.7260  -0.6803  -0.6553
 -0.6160  -0.5996  -0.5883  -0.5634  -0.5277  -0.5048  -0.4832  -0.4711
 -0.4633  -0.4508  -0.4333  -0.4272  -0.4222  -0.4163  -0.4152  -0.4076
 -0.3941  -0.3886  -0.3693  -0.3637  -0.3615  -0.3504  -0.3413  -0.3396
 -0.3341  -0.3272  -0.3039  -0.2821  -0.2556  -0.2534  -0.2526  -0.2455
 -0.2147

          Ground-State Mulliken Net Atomic Charges

     Atom                 Charge (a.u.)    Spin (a.u.)
  --------------------------------------------------------
      1 C                     0.143024       0.007698
      2 C                    -0.445555       0.055846
      3 C                    -0.424201       0.008125
      4 C                     0.240051       0.060566
      5 C                     0.090728      -0.011860
      6 C                     0.076270       0.066245
      7 C                    -0.737981       0.081577
      8 C                     1.012263       0.025196
      9 C                    -0.424886       0.096245
     10 C                    -0.849633       0.169930
     11 O                    -0.461527       0.181703
     12 O                    -0.489046       0.235085
     13 H                     0.184068      -0.000586
     14 H                     0.202463      -0.004082
     15 H                     0.187803      -0.003545
     16 Cl                    0.317555       0.001415
     17 H                     0.202517      -0.000973
     18 N                     0.051766       0.029040
     19 C                    -0.495583       0.000109
     20 C                    -0.047306      -0.002417
     21 C                    -0.643828       0.000065
     22 H                     0.304692      -0.000566
     23 H                     0.105506       0.002074
     24 H                     0.174337       0.003306
     25 H                     0.133626      -0.000565
     26 H                     0.145209       0.000342
     27 H                     0.142934       0.000202
     28 H                     0.155264       0.000086
     29 H                     0.149472      -0.000261
  --------------------------------------------------------
  Sum of atomic charges =    -1.000001

                    Cartesian Multipole Moments
 -----------------------------------------------------------------
    Charge (ESU x 10^10)
                -4.8032
    Dipole Moment (Debye)
         X      -3.0094      Y       3.7588      Z      -1.8208
       Tot       5.1478
    Quadrupole Moments (Debye-Ang)
        XX    -106.8932     XY       5.7168     YY    -145.9663
        XZ       2.3756     YZ      -3.1349     ZZ    -115.3865

 Total job time:  118.19s(wall), 717.20s(cpu)
        *  Thank you very much for using Q-Chem.  Have a nice day.  *
