 Gaussian 16, Revision A.03,
 Gaussian 16:  ES64L-G16RevA.03 25-Dec-2016

 ----------------------------------------------------------------------
 #P UB3LYP/6-311++G(d,p) nosym opt freq SCRF=(PCM,Solvent=n,n-DiMethylF
 ormamide)
 ----------------------------------------------------------------------

 --------
 Oxidized
 --------
 Symbolic Z-matrix:
 Charge =  0 Multiplicity = 1

 SCF Done:  E(UB3LYP) =  -653.013169413     A.U. after   15 cycles
 SCF Done:  E(UB3LYP) =  -653.013235367     A.U. after   12 cycles
 SCF Done:  E(UB3LYP) =  -653.013227633     A.U. after   12 cycles
 SCF Done:  E(UB3LYP) =  -653.013336218     A.U. after   12 cycles
 SCF Done:  E(UB3LYP) =  -653.013339662     A.U. after   10 cycles
 SCF Done:  E(UB3LYP) =  -653.013340921     A.U. after   10 cycles
 SCF Done:  E(UB3LYP) =  -653.013341113     A.U. after   10 cycles
 Optimization completed.
    -- Stationary point found.
 Normal termination of Gaussian 16 at Sun Feb 11 15:31:54 2024.

 ----------------------------------------------------------------------
 #P Geom=AllCheck Guess=TCheck SCRF=Check GenChk UB3LYP/6-311++G(d,p) F
 req
 ----------------------------------------------------------------------

 Structure from the checkpoint file:  "344.chk"
 --------
 Oxidized
 --------
 Charge =  0 Multiplicity = 1

                          Input orientation:
 ---------------------------------------------------------------------
 Center     Atomic      Atomic             Coordinates (Angstroms)
 Number     Number       Type             X           Y           Z
 ---------------------------------------------------------------------
      1          8           0        0.054164   -2.054047   -1.577620
      2          6           0        0.028291   -1.084305   -0.821487
      3          6           0        1.322329   -0.562403   -0.289623
      4          6           0        2.342707   -1.524563   -0.166562
      5          6           0        3.614029   -1.187108    0.267338
      6          6           0        3.910710    0.149841    0.552795
      7          6           0        2.926270    1.113339    0.419590
      8          6           0        1.607905    0.789046    0.026193
      9          6           0        0.672899    1.897110   -0.047728
     10          6           0       -0.675928    1.894560   -0.091189
     11          6           0       -1.609473    0.782932   -0.077100
     12          6           0       -2.951571    1.102199    0.230834
     13          6           0       -3.938590    0.134795    0.302141
     14          6           0       -3.618901   -1.201167    0.037627
     15          6           0       -2.321182   -1.533727   -0.314142
     16          6           0       -1.298975   -0.567495   -0.373053
     17          1           0        2.109387   -2.550435   -0.420149
     18          1           0        4.373816   -1.952705    0.371278
     19          1           0        4.905981    0.433566    0.874876
     20          1           0        3.159778    2.150615    0.631859
     21          1           0        1.142542    2.874748    0.004706
     22          1           0       -1.151771    2.870352   -0.069381
     23          1           0       -3.202146    2.138730    0.426680
     24          1           0       -4.953512    0.414689    0.559813
     25          1           0       -4.380647   -1.969800    0.093882
     26          1           0       -2.068109   -2.558765   -0.551579
 ---------------------------------------------------------------------

 SCF Done:  E(UB3LYP) =  -653.013341113     A.U. after    1 cycles

 Alpha  occ. eigenvalues --  -19.12027 -10.27751 -10.21077 -10.21076 -10.20458
 Alpha  occ. eigenvalues --  -10.20457 -10.19425 -10.19350 -10.19192 -10.19192
 Alpha  occ. eigenvalues --  -10.19108 -10.19107 -10.19039 -10.19039 -10.18907
 Alpha  occ. eigenvalues --  -10.18906  -1.05487  -0.88862  -0.87772  -0.82187
 Alpha  occ. eigenvalues --   -0.78397  -0.78049  -0.76949  -0.73870  -0.66818
 Alpha  occ. eigenvalues --   -0.66133  -0.62046  -0.61583  -0.58340  -0.57443
 Alpha  occ. eigenvalues --   -0.52107  -0.50972  -0.49972  -0.48567  -0.47379
 Alpha  occ. eigenvalues --   -0.45381  -0.44864  -0.44633  -0.44073  -0.43810
 Alpha  occ. eigenvalues --   -0.41330  -0.39947  -0.39055  -0.38456  -0.37104
 Alpha  occ. eigenvalues --   -0.37027  -0.36267  -0.35309  -0.33118  -0.28681
 Alpha  occ. eigenvalues --   -0.27995  -0.27737  -0.26378  -0.23367
 Alpha virt. eigenvalues --   -0.08259  -0.07545  -0.02480  -0.02433  -0.00749
 Alpha virt. eigenvalues --    0.00179   0.00557   0.01809   0.02025   0.02271
 Alpha virt. eigenvalues --    0.03510   0.03768   0.03951   0.04123   0.04227

  Beta  occ. eigenvalues --  -19.12027 -10.27751 -10.21077 -10.21076 -10.20458
  Beta  occ. eigenvalues --  -10.20457 -10.19425 -10.19350 -10.19192 -10.19192
  Beta  occ. eigenvalues --  -10.19108 -10.19107 -10.19039 -10.19039 -10.18907
  Beta  occ. eigenvalues --  -10.18906  -1.05487  -0.88862  -0.87772  -0.82187
  Beta  occ. eigenvalues --   -0.78397  -0.78049  -0.76949  -0.73870  -0.66818
  Beta  occ. eigenvalues --   -0.66133  -0.62046  -0.61583  -0.58340  -0.57443
  Beta  occ. eigenvalues --   -0.52107  -0.50972  -0.49972  -0.48567  -0.47379
  Beta  occ. eigenvalues --   -0.45381  -0.44864  -0.44633  -0.44073  -0.43810
  Beta  occ. eigenvalues --   -0.41330  -0.39947  -0.39055  -0.38456  -0.37104
  Beta  occ. eigenvalues --   -0.37027  -0.36267  -0.35309  -0.33118  -0.28681
  Beta  occ. eigenvalues --   -0.27995  -0.27737  -0.26378  -0.23367
  Beta virt. eigenvalues --   -0.08259  -0.07545  -0.02480  -0.02433  -0.00749
  Beta virt. eigenvalues --    0.00179   0.00557   0.01809   0.02025   0.02271
  Beta virt. eigenvalues --    0.03510   0.03768   0.03951   0.04123   0.04227

 Mulliken charges and spin densities:
               1          2
     1  O   -0.302512   0.000000
     2  C   -0.644164   0.000000
     3  C    0.693963  -0.000000
     4  C   -0.052172   0.000000
     5  C   -0.536763  -0.000000
     6  C   -0.323990   0.000000
     7  C   -0.201838   0.000000
     8  C    0.231531   0.000000
     9  C   -0.306874   0.000000
    10  C   -0.307107  -0.000000
    11  C    0.231775   0.000000
    12  C   -0.200994  -0.000000
    13  C   -0.323610   0.000000
    14  C   -0.537357   0.000000
    15  C   -0.051229  -0.000000
    16  C    0.692872   0.000000
    17  H    0.202030   0.000000
    18  H    0.200866  -0.000000
    19  H    0.197608  -0.000000
    20  H    0.175173  -0.000000
    21  H    0.193629   0.000000
    22  H    0.193680   0.000000
    23  H    0.175142  -0.000000
    24  H    0.197630   0.000000
    25  H    0.200873   0.000000
    26  H    0.201840  -0.000000
 Sum of Mulliken charges =  -0.00000  -0.00000

 Dipole moment (field-independent basis, Debye):
    X=             -0.0998    Y=              3.4329    Z=              2.9753  Tot=              4.5440
 Quadrupole moment (field-independent basis, Debye-Ang):
   XX=            -69.1535   YY=            -86.4430   ZZ=           -102.9772
   XY=              0.1694   XZ=              1.0871   YZ=             -4.3911

  Exact polarizability: 405.019  -0.587 268.184   8.401  26.472 140.553
 Approx polarizability: 444.240  -0.988 334.570   8.747  37.313 168.313

                      1                      2                      3
                      A                      A                      A
 Frequencies --     44.9310                89.2138               125.3971
 Red. masses --      5.8893                 3.9398                 5.2675
 Frc consts  --      0.0070                 0.0185                 0.0488
 IR Inten    --      3.3694                 0.9933                 4.7655

                      4                      5                      6
                      A                      A                      A
 Frequencies --    196.6433               206.2102               255.1338
 Red. masses --      5.0163                 4.1422                 4.5730
 Frc consts  --      0.1143                 0.1038                 0.1754
 IR Inten    --      0.0302                 3.5632                 3.8159

                      7                      8                      9
                      A                      A                      A
 Frequencies --    304.9465               321.3195               383.7971
 Red. masses --      5.5643                 6.1279                 5.6223
 Frc consts  --      0.3049                 0.3728                 0.4879
 IR Inten    --     15.4138                 4.8403                 9.2267

                     10                     11                     12
                      A                      A                      A
 Frequencies --    399.7904               417.6425               480.0664
 Red. masses --      4.5911                 4.0010                 3.8299
 Frc consts  --      0.4323                 0.4112                 0.5200
 IR Inten    --      0.0478                 1.1837                 3.3464

                     13                     14                     15
                      A                      A                      A
 Frequencies --    488.5622               517.5316               556.4466
 Red. masses --      3.0321                 7.3054                 5.2274
 Frc consts  --      0.4264                 1.1528                 0.9536
 IR Inten    --     22.9532                 0.6522                 0.1011

                     16                     17                     18
                      A                      A                      A
 Frequencies --    588.9945               596.4781               641.0979
 Red. masses --      3.1496                 5.1909                 6.7000
 Frc consts  --      0.6438                 1.0881                 1.6225
 IR Inten    --      0.7239                 4.0533                25.3501

                     19                     20                     21
                      A                      A                      A
 Frequencies --    686.0703               697.8855               731.1275
 Red. masses --      6.0618                 4.0464                 5.4402
 Frc consts  --      1.6811                 1.1611                 1.7134
 IR Inten    --      2.5678                24.4559                 0.1364

                     22                     23                     24
                      A                      A                      A
 Frequencies --    740.0477               758.1839               782.6732
 Red. masses --      1.3235                 2.5603                 1.5958
 Frc consts  --      0.4271                 0.8671                 0.5760
 IR Inten    --     91.2052                 4.0731                 5.0227

                     25                     26                     27
                      A                      A                      A
 Frequencies --    822.2736               827.9049               829.0213
 Red. masses --      2.6471                 1.6585                 4.7137
 Frc consts  --      1.0545                 0.6698                 1.9087
 IR Inten    --     41.3037                86.8427                 6.6784

                     28                     29                     30
                      A                      A                      A
 Frequencies --    874.1280               901.6597               905.0699
 Red. masses --      2.3225                 2.0096                 1.7077
 Frc consts  --      1.0456                 0.9626                 0.8242
 IR Inten    --     12.7858                11.9749                 9.2982

                     31                     32                     33
                      A                      A                      A
 Frequencies --    942.9445               984.6512               987.0059
 Red. masses --      6.4728                 1.3717                 1.3895
 Frc consts  --      3.3909                 0.7836                 0.7975
 IR Inten    --     55.2131                 3.6355                 8.1231

                     34                     35                     36
                      A                      A                      A
 Frequencies --   1007.4252              1010.3312              1015.8107
 Red. masses --      1.3142                 1.3202                 1.2956
 Frc consts  --      0.7858                 0.7940                 0.7877
 IR Inten    --      0.0951                 0.0380                 2.3353

                     37                     38                     39
                      A                      A                      A
 Frequencies --   1059.5151              1072.9576              1118.6558
 Red. masses --      2.9274                 2.1310                 2.7959
 Frc consts  --      1.9362                 1.4454                 2.0614
 IR Inten    --      6.5381                 6.5483                 0.6755

                     40                     41                     42
                      A                      A                      A
 Frequencies --   1134.7122              1169.3621              1183.9415
 Red. masses --      1.9010                 2.1805                 1.1442
 Frc consts  --      1.4422                 1.7568                 0.9449
 IR Inten    --      3.4336                52.8164                 2.1728

                     43                     44                     45
                      A                      A                      A
 Frequencies --   1185.7330              1187.9961              1231.4242
 Red. masses --      1.0913                 2.2401                 2.4011
 Frc consts  --      0.9040                 1.8627                 2.1453
 IR Inten    --      0.1890                 0.1061                11.1446

                     46                     47                     48
                      A                      A                      A
 Frequencies --   1255.1623              1263.0492              1312.1945
 Red. masses --      1.6012                 1.8083                 1.8287
 Frc consts  --      1.4862                 1.6996                 1.8552
 IR Inten    --      1.1768                15.6508                 6.0133

                     49                     50                     51
                      A                      A                      A
 Frequencies --   1316.5365              1350.5399              1365.7551
 Red. masses --      2.7595                 6.9474                 2.3503
 Frc consts  --      2.8181                 7.4660                 2.5830
 IR Inten    --    191.8449               111.6743                29.3083

                     52                     53                     54
                      A                      A                      A
 Frequencies --   1451.4657              1454.1969              1494.3961
 Red. masses --      1.6602                 1.9766                 1.9019
 Frc consts  --      2.0607                 2.4628                 2.5025
 IR Inten    --     33.7690                 4.1607                 3.8634

                     55                     56                     57
                      A                      A                      A
 Frequencies --   1505.2695              1515.4992              1581.8282
 Red. masses --      2.4139                 2.7297                 6.0477
 Frc consts  --      3.2225                 3.6938                 8.9157
 IR Inten    --     23.7328                 4.2339                 0.4158

                     58                     59                     60
                      A                      A                      A
 Frequencies --   1592.3279              1620.4303              1633.7637
 Red. masses --      6.2211                 6.0610                 5.3855
 Frc consts  --      9.2936                 9.3768                 8.4695
 IR Inten    --      3.6167               256.6304                50.0612

                     61                     62                     63
                      A                      A                      A
 Frequencies --   1652.9122              1673.9589              3143.9285
 Red. masses --      8.8288                 6.7595                 1.0848
 Frc consts  --     14.2118                11.1597                 6.3175
 IR Inten    --    319.2721                26.4010                 0.0340

                     64                     65                     66
                      A                      A                      A
 Frequencies --   3162.2715              3170.2252              3170.6542
 Red. masses --      1.0923                 1.0869                 1.0870
 Frc consts  --      6.4354                 6.4359                 6.4385
 IR Inten    --     20.9566                 0.6093                11.2063

                     67                     68                     69
                      A                      A                      A
 Frequencies --   3180.1368              3180.2389              3191.7634
 Red. masses --      1.0900                 1.0901                 1.0949
 Frc consts  --      6.4950                 6.4957                 6.5719
 IR Inten    --      2.4119                33.1193                41.6450

                     70                     71                     72
                      A                      A                      A
 Frequencies --   3191.9114              3204.5099              3205.3501
 Red. masses --      1.0949                 1.0941                 1.0941
 Frc consts  --      6.5727                 6.6199                 6.6228
 IR Inten    --      9.5347                18.3030                10.6723

 - Thermochemistry -
 -------------------
 Temperature   298.150 Kelvin.  Pressure   1.00000 Atm.
 Atom     1 has atomic number  8 and mass  15.99491

 Molecular mass:   206.07317 amu.
 Principal axes and moments of inertia in atomic units:
                           1         2         3
     Eigenvalues --  1471.232964624.362685819.86366
           X            0.99949  -0.00955  -0.03047
           Y            0.00190   0.97037  -0.24161
           Z            0.03187   0.24143   0.96990
 This molecule is an asymmetric top.
 Rotational symmetry number  1.
 Warning -- assumption of classical behavior for rotation
           may cause significant error
 Rotational temperatures (Kelvin)      0.05887     0.01873     0.01488
 Rotational constants (GHZ):           1.22669     0.39027     0.31010
 Zero-point vibrational energy     534150.5 (Joules/Mol)
                                  127.66503 (Kcal/Mol)
 Warning -- explicit consideration of  17 degrees of freedom as
           vibrations may cause significant error
 Vibrational temperatures:     64.65   128.36   180.42   282.93   296.69
          (Kelvin)            367.08   438.75   462.31   552.20   575.21
                              600.89   690.71   702.93   744.61   800.60
                              847.43   858.20   922.40   987.10  1004.10
                             1051.93  1064.76  1090.86  1126.09  1183.07
                             1191.17  1192.78  1257.68  1297.29  1302.19
                             1356.69  1416.69  1420.08  1449.46  1453.64
                             1461.53  1524.41  1543.75  1609.50  1632.60
                             1682.45  1703.43  1706.01  1709.26  1771.74
                             1805.90  1817.25  1887.96  1894.20  1943.13
                             1965.02  2088.34  2092.26  2150.10  2165.75
                             2180.47  2275.90  2291.00  2331.44  2350.62
                             2378.17  2408.45  4523.41  4549.80  4561.25
                             4561.86  4575.51  4575.65  4592.24  4592.45
                             4610.58  4611.78

 Zero-point correction=                           0.203447 (Hartree/Particle)
 Thermal correction to Energy=                    0.214748
 Thermal correction to Enthalpy=                  0.215692
 Thermal correction to Gibbs Free Energy=         0.165826
 Sum of electronic and zero-point Energies=           -652.809894
 Sum of electronic and thermal Energies=              -652.798593
 Sum of electronic and thermal Enthalpies=            -652.797649
 Sum of electronic and thermal Free Energies=         -652.847515

                     E (Thermal)             CV                S
                      KCal/Mol        Cal/Mol-Kelvin    Cal/Mol-Kelvin
 Total                  134.756             46.943            104.953
 Electronic               0.000              0.000              0.000
 Translational            0.889              2.981             41.873
 Rotational               0.889              2.981             32.049
 Vibrational            132.979             40.982             31.031
 Vibration     1          0.595              1.979              5.029
 Vibration     2          0.602              1.957              3.677
 Vibration     3          0.610              1.928              3.015
 Vibration     4          0.636              1.845              2.164
 Vibration     5          0.641              1.831              2.077
 Vibration     6          0.666              1.754              1.695
 Vibration     7          0.696              1.664              1.390
 Vibration     8          0.707              1.633              1.303
 Vibration     9          0.753              1.505              1.024
 Vibration    10          0.766              1.471              0.963
 Vibration    11          0.781              1.432              0.900
 Vibration    12          0.836              1.294              0.710
 Vibration    13          0.844              1.275              0.687
 Vibration    14          0.873              1.211              0.616
 Vibration    15          0.912              1.126              0.531
 Vibration    16          0.946              1.055              0.469
 Vibration    17          0.954              1.039              0.456

 Optimization completed.
    -- Stationary point found.
 Normal termination of Gaussian 16 at Sun Feb 11 16:11:41 2024.
