 Gaussian 16, Revision A.03,
 Gaussian 16:  ES64L-G16RevA.03 25-Dec-2016

 ----------------------------------------------------------------
 #P UB3LYP/6-311++G(d,p) SCRF=(PCM,Solvent=n,n-DiMethylFormamide)
 ----------------------------------------------------------------

 -------
 Reduced
 -------
 Symbolic Z-matrix:
 Charge = -2 Multiplicity = 1

                         Standard orientation:
 ---------------------------------------------------------------------
 Center     Atomic      Atomic             Coordinates (Angstroms)
 Number     Number       Type             X           Y           Z
 ---------------------------------------------------------------------
      1          6           0        1.029316   -1.111037   -0.541346
      2          6           0        2.334730   -1.723450   -0.386527
      3          6           0        3.453152   -1.028606    0.001284
      4          6           0        3.451944    0.390954    0.316894
      5          6           0        2.175186    0.988468    0.210122
      6          6           0        0.978794    0.294644   -0.146635
      7          8           0        0.058801   -1.774581   -1.034686
      8          8           0        4.538433    0.994050    0.674105
      9          6           0       -1.613886    0.409583   -0.025874
     10          6           0       -2.728300    1.035671   -0.603556
     11          6           0       -1.842865   -0.695871    0.805904
     12          6           0       -3.134716   -1.149357    1.056655
     13          6           0       -4.023701    0.568410   -0.377347
     14          6           0       -4.237893   -0.525359    0.461023
     15          1           0        2.392769   -2.781501   -0.640311
     16          1           0        4.413990   -1.538897    0.085325
     17          1           0        2.086451    2.043141    0.450343
     18          1           0       -2.553278    1.909815   -1.220517
     19          1           0       -0.992054   -1.196266    1.249736
     20          1           0       -3.285833   -2.002980    1.712626
     21          1           0       -4.871195    1.067539   -0.843987
     22          1           0       -5.247554   -0.880733    0.656596
     23          6           0       -0.253856    1.063905   -0.183147
     24          8           0       -0.281075    2.314550   -0.261233
 ---------------------------------------------------------------------

 SCF Done:  E(UB3LYP) =  -726.313266933     A.U. after   19 cycles

 The electronic state is 1-A.
 Alpha  occ. eigenvalues --  -19.07286 -19.03043 -19.01590 -10.22562 -10.19136
 Alpha  occ. eigenvalues --  -10.17266 -10.17135 -10.17098 -10.16929 -10.16808
 Alpha  occ. eigenvalues --  -10.16660 -10.16601 -10.14013 -10.13389 -10.13378
 Alpha  occ. eigenvalues --  -10.11768  -0.99734  -0.95191  -0.92933  -0.84954
 Alpha  occ. eigenvalues --   -0.78438  -0.75079  -0.73990  -0.71621  -0.65603
 Alpha  occ. eigenvalues --   -0.62112  -0.59922  -0.57995  -0.54521  -0.52815
 Alpha  occ. eigenvalues --   -0.48920  -0.45232  -0.44553  -0.43695  -0.43241
 Alpha  occ. eigenvalues --   -0.41923  -0.41429  -0.40341  -0.38681  -0.37836
 Alpha  occ. eigenvalues --   -0.36531  -0.36112  -0.35197  -0.34187  -0.33687
 Alpha  occ. eigenvalues --   -0.32987  -0.32180  -0.31687  -0.25372  -0.25220
 Alpha  occ. eigenvalues --   -0.23264  -0.23094  -0.22043  -0.19981  -0.19552
 Alpha  occ. eigenvalues --   -0.12589
 Alpha virt. eigenvalues --   -0.04650  -0.00663   0.00047   0.00274   0.00953
 Alpha virt. eigenvalues --    0.01652   0.02281   0.02626   0.03591   0.04342
 Alpha virt. eigenvalues --    0.04678   0.05238   0.05446   0.05791   0.06529

  Beta  occ. eigenvalues --  -19.07286 -19.03043 -19.01590 -10.22562 -10.19136
  Beta  occ. eigenvalues --  -10.17266 -10.17135 -10.17098 -10.16929 -10.16808
  Beta  occ. eigenvalues --  -10.16660 -10.16601 -10.14013 -10.13389 -10.13378
  Beta  occ. eigenvalues --  -10.11768  -0.99734  -0.95191  -0.92933  -0.84954
  Beta  occ. eigenvalues --   -0.78438  -0.75079  -0.73990  -0.71621  -0.65603
  Beta  occ. eigenvalues --   -0.62112  -0.59922  -0.57995  -0.54521  -0.52815
  Beta  occ. eigenvalues --   -0.48920  -0.45232  -0.44553  -0.43695  -0.43241
  Beta  occ. eigenvalues --   -0.41923  -0.41429  -0.40341  -0.38681  -0.37836
  Beta  occ. eigenvalues --   -0.36531  -0.36112  -0.35197  -0.34187  -0.33687
  Beta  occ. eigenvalues --   -0.32987  -0.32180  -0.31687  -0.25372  -0.25220
  Beta  occ. eigenvalues --   -0.23264  -0.23094  -0.22043  -0.19981  -0.19552
  Beta  occ. eigenvalues --   -0.12589
  Beta virt. eigenvalues --   -0.04650  -0.00663   0.00047   0.00274   0.00953
  Beta virt. eigenvalues --    0.01652   0.02281   0.02626   0.03591   0.04342
  Beta virt. eigenvalues --    0.04678   0.05238   0.05446   0.05791   0.06529

 Mulliken charges and spin densities:
               1          2
     1  C   -1.102915  -0.000000
     2  C   -0.051400   0.000000
     3  C   -0.026809  -0.000000
     4  C   -0.461210  -0.000000
     5  C   -0.018861  -0.000000
     6  C    1.413940   0.000000
     7  O   -0.545033   0.000000
     8  O   -0.723604   0.000000
     9  C    1.249641  -0.000000
    10  C    0.162928   0.000000
    11  C   -0.690804  -0.000000
    12  C   -0.431170   0.000000
    13  C   -0.300892   0.000000
    14  C   -0.277206  -0.000000
    15  H    0.157217   0.000000
    16  H    0.154611  -0.000000
    17  H    0.154130  -0.000000
    18  H    0.199255  -0.000000
    19  H    0.180103  -0.000000
    20  H    0.184193  -0.000000
    21  H    0.182942  -0.000000
    22  H    0.176379   0.000000
    23  C   -1.185553   0.000000
    24  O   -0.399881   0.000000
 Sum of Mulliken charges =  -2.00000   0.00000

 Dipole moment (field-independent basis, Debye):
    X=            -18.0195    Y=             -4.0081    Z=              1.1746  Tot=             18.4972
 Quadrupole moment (field-independent basis, Debye-Ang):
   XX=           -181.4853   YY=           -127.3817   ZZ=           -106.7741
   XY=            -17.1061   XZ=            -11.4141   YZ=            -10.9185

 Normal termination of Gaussian 16 at Wed Jan 24 22:52:05 2024.
