 Gaussian 16, Revision A.03,
 Gaussian 16:  ES64L-G16RevA.03 25-Dec-2016

 --------------------------------------
 #P UB3LYP/6-311++G(d,p) nosym opt freq
 --------------------------------------

 -------
 Radical
 -------
 Symbolic Z-matrix:
 Charge = -1 Multiplicity = 2

 SCF Done:  E(UB3LYP) =  -744.370119906     A.U. after   23 cycles
 SCF Done:  E(UB3LYP) =  -744.387015572     A.U. after   19 cycles
 SCF Done:  E(UB3LYP) =  -744.389135829     A.U. after   17 cycles
 SCF Done:  E(UB3LYP) =  -744.391047201     A.U. after   17 cycles
 SCF Done:  E(UB3LYP) =  -744.392349487     A.U. after   16 cycles
 SCF Done:  E(UB3LYP) =  -744.393105778     A.U. after   17 cycles
 SCF Done:  E(UB3LYP) =  -744.393464954     A.U. after   16 cycles
 SCF Done:  E(UB3LYP) =  -744.393484635     A.U. after   15 cycles
 SCF Done:  E(UB3LYP) =  -744.393572678     A.U. after   15 cycles
 SCF Done:  E(UB3LYP) =  -744.393607264     A.U. after   14 cycles
 SCF Done:  E(UB3LYP) =  -744.393612473     A.U. after   12 cycles
 SCF Done:  E(UB3LYP) =  -744.393614775     A.U. after   12 cycles
 SCF Done:  E(UB3LYP) =  -744.393615005     A.U. after   10 cycles
 Optimization completed.
    -- Stationary point found.
 Normal termination of Gaussian 16 at Thu Dec 21 06:20:16 2023.

 ----------------------------------------------------------------------
 #P Geom=AllCheck Guess=TCheck SCRF=Check GenChk UB3LYP/6-311++G(d,p) F
 req
 ----------------------------------------------------------------------

 Structure from the checkpoint file:  "151-rad.chk"
 -------
 Radical
 -------
 Charge = -1 Multiplicity = 2

                          Input orientation:
 ---------------------------------------------------------------------
 Center     Atomic      Atomic             Coordinates (Angstroms)
 Number     Number       Type             X           Y           Z
 ---------------------------------------------------------------------
      1          7           0       -4.527894   -0.933403   -0.775802
      2          6           0       -3.244047   -0.664705   -0.238418
      3          6           0       -3.049433   -0.736553    1.163223
      4          6           0       -1.796929   -0.522291    1.698190
      5          6           0       -0.681177   -0.237607    0.883671
      6          6           0        0.625357   -0.018071    1.504703
      7          8           0        0.791463   -0.075412    2.748112
      8          6           0        1.729471    0.274056    0.586198
      9          6           0        3.021044    0.496786    1.110149
     10          6           0        4.092394    0.776682    0.284860
     11          6           0        3.901531    0.843854   -1.113864
     12          6           0        2.648007    0.630145   -1.650106
     13          6           0        1.535554    0.341680   -0.826247
     14          6           0        0.228353    0.123707   -1.442465
     15          8           0        0.056236    0.187752   -2.689358
     16          6           0       -0.873028   -0.172200   -0.526250
     17          6           0       -2.163959   -0.387842   -1.055834
     18          1           0       -5.283419   -0.608525   -0.186066
     19          1           0       -4.641949   -0.577603   -1.715920
     20          1           0       -3.892056   -0.968675    1.809649
     21          1           0       -1.632100   -0.569820    2.768727
     22          1           0        3.136068    0.438866    2.186656
     23          1           0        5.078655    0.944762    0.707544
     24          1           0        4.742381    1.063688   -1.765616
     25          1           0        2.474426    0.675889   -2.719187
     26          1           0       -2.274949   -0.325158   -2.133875
 ---------------------------------------------------------------------

 SCF Done:  E(UB3LYP) =  -744.393615005     A.U. after    1 cycles

 Alpha  occ. eigenvalues --  -18.94210 -18.94007 -14.21990 -10.09849 -10.09347
 Alpha  occ. eigenvalues --  -10.08851 -10.05605 -10.05431 -10.05337 -10.05271
 Alpha  occ. eigenvalues --  -10.04824 -10.04739 -10.04662 -10.04524 -10.04459
 Alpha  occ. eigenvalues --  -10.04365 -10.04201  -0.86838  -0.86380  -0.81460
 Alpha  occ. eigenvalues --   -0.73343  -0.72150  -0.65653  -0.62803  -0.62565
 Alpha  occ. eigenvalues --   -0.61011  -0.54044  -0.51919  -0.49403  -0.47277
 Alpha  occ. eigenvalues --   -0.43484  -0.41996  -0.41134  -0.39572  -0.36265
 Alpha  occ. eigenvalues --   -0.34601  -0.33632  -0.32739  -0.30517  -0.30005
 Alpha  occ. eigenvalues --   -0.29427  -0.28789  -0.28098  -0.27500  -0.26721
 Alpha  occ. eigenvalues --   -0.26063  -0.24480  -0.23095  -0.22711  -0.22485
 Alpha  occ. eigenvalues --   -0.20838  -0.18820  -0.13812  -0.13257  -0.12948
 Alpha  occ. eigenvalues --   -0.11130  -0.10393  -0.10273  -0.00977
 Alpha virt. eigenvalues --    0.06822   0.07190   0.08497   0.09409   0.10193
 Alpha virt. eigenvalues --    0.10436   0.11058   0.11876   0.12412   0.12941
 Alpha virt. eigenvalues --    0.14419   0.14666   0.15390   0.15998   0.16621

  Beta  occ. eigenvalues --  -18.93674 -18.93368 -14.21980 -10.09807 -10.09227
  Beta  occ. eigenvalues --  -10.08686 -10.05570 -10.05391 -10.05290 -10.05265
  Beta  occ. eigenvalues --  -10.04765 -10.04724 -10.04659 -10.04437 -10.04348
  Beta  occ. eigenvalues --  -10.04340 -10.04141  -0.85908  -0.85273  -0.81409
  Beta  occ. eigenvalues --   -0.73086  -0.72035  -0.65268  -0.62579  -0.62410
  Beta  occ. eigenvalues --   -0.60834  -0.53315  -0.51779  -0.49156  -0.47205
  Beta  occ. eigenvalues --   -0.43284  -0.41771  -0.41067  -0.39486  -0.36083
  Beta  occ. eigenvalues --   -0.34384  -0.33455  -0.32652  -0.30482  -0.29970
  Beta  occ. eigenvalues --   -0.28855  -0.28160  -0.27866  -0.27126  -0.26238
  Beta  occ. eigenvalues --   -0.25669  -0.22983  -0.22475  -0.22325  -0.21805
  Beta  occ. eigenvalues --   -0.20628  -0.17990  -0.13032  -0.12110  -0.11535
  Beta  occ. eigenvalues --   -0.10592  -0.09764  -0.09643
  Beta virt. eigenvalues --    0.04954   0.06829   0.07974   0.08487   0.09398
  Beta virt. eigenvalues --    0.10426   0.10882   0.11334   0.12103   0.12419
  Beta virt. eigenvalues --    0.12936   0.14450   0.14655   0.15490   0.16086

 Mulliken charges and spin densities:
               1          2
     1  N   -0.331683   0.005182
     2  C   -0.430790   0.021854
     3  C   -0.066075   0.032691
     4  C    0.125529   0.006980
     5  C    0.191466   0.024650
     6  C   -0.748494   0.059505
     7  O   -0.372133   0.199470
     8  C    0.190152   0.057451
     9  C    0.093138   0.003625
    10  C   -0.405112   0.058648
    11  C   -0.387381   0.029915
    12  C    0.046243   0.030055
    13  C    0.348364   0.045056
    14  C   -0.837519   0.088933
    15  O   -0.376414   0.239490
    16  C    0.590221   0.069247
    17  C   -0.053736   0.042702
    18  H    0.217105   0.001580
    19  H    0.229909  -0.000119
    20  H    0.131022  -0.002967
    21  H    0.158813  -0.000624
    22  H    0.155983  -0.000187
    23  H    0.119800  -0.004652
    24  H    0.121093  -0.002768
    25  H    0.153077  -0.002072
    26  H    0.137420  -0.003643
 Sum of Mulliken charges =  -1.00000   1.00000

 Dipole moment (field-independent basis, Debye):
    X=             -3.1472    Y=              0.6432    Z=             -0.1446  Tot=              3.2155
 Quadrupole moment (field-independent basis, Debye-Ang):
   XX=           -107.7816   YY=           -109.3618   ZZ=           -130.7512
   XY=             -6.2810   XZ=             -2.2006   YZ=              0.3233

  Exact polarizability: 343.071  48.367 108.990  -3.207  -9.846 220.394
 Approx polarizability: 503.164  68.858 171.058   7.656 -18.326 420.607

                      1                      2                      3
                      A                      A                      A
 Frequencies --     50.9158               101.0583               134.4637
 Red. masses --      6.6657                 4.3507                 5.0766
 Frc consts  --      0.0102                 0.0262                 0.0541
 IR Inten    --      6.8324                 0.7587                 0.3860

                      4                      5                      6
                      A                      A                      A
 Frequencies --    159.5004               190.1427               204.7261
 Red. masses --      6.7398                 4.6071                 5.2619
 Frc consts  --      0.1010                 0.0981                 0.1299
 IR Inten    --      2.0192                 5.1718                 2.0351

                      7                      8                      9
                      A                      A                      A
 Frequencies --    248.5562               280.0791               301.8897
 Red. masses --      1.0718                 5.9963                 5.2215
 Frc consts  --      0.0390                 0.2771                 0.2804
 IR Inten    --     35.8329                 2.9371                 5.2316

                     10                     11                     12
                      A                      A                      A
 Frequencies --    337.4118               378.4032               387.2938
 Red. masses --      7.2174                10.3424                 5.1783
 Frc consts  --      0.4841                 0.8725                 0.4576
 IR Inten    --      0.1685                 4.4829                 3.5642

                     13                     14                     15
                      A                      A                      A
 Frequencies --    417.9229               442.3095               443.4605
 Red. masses --      3.9700                 4.9926                 4.9278
 Frc consts  --      0.4085                 0.5755                 0.5710
 IR Inten    --      1.0236                 1.3151                 6.8869

                     16                     17                     18
                      A                      A                      A
 Frequencies --    466.5750               489.3833               543.2506
 Red. masses --      3.0592                12.3810                 3.7186
 Frc consts  --      0.3924                 1.7470                 0.6466
 IR Inten    --      0.8675                 0.3395                35.5805

                     19                     20                     21
                      A                      A                      A
 Frequencies --    579.6589               642.9744               647.1705
 Red. masses --      6.4376                 6.6444                 3.2174
 Frc consts  --      1.2744                 1.6184                 0.7939
 IR Inten    --     18.6901                 8.9101                63.2772

                     22                     23                     24
                      A                      A                      A
 Frequencies --    669.4152               695.8914               701.2355
 Red. masses --      6.3323                 1.8295                 6.3407
 Frc consts  --      1.6719                 0.5220                 1.8370
 IR Inten    --     14.9880               128.6349                 0.7372

                     25                     26                     27
                      A                      A                      A
 Frequencies --    715.6447               733.1939               761.5374
 Red. masses --      2.2669                 3.5769                 3.6152
 Frc consts  --      0.6840                 1.1329                 1.2353
 IR Inten    --    197.8928                45.6319                 9.6243

                     28                     29                     30
                      A                      A                      A
 Frequencies --    777.8273               792.1160               817.1436
 Red. masses --      1.9539                 2.2027                 2.3637
 Frc consts  --      0.6965                 0.8143                 0.9299
 IR Inten    --     10.1753                20.7413                24.7679

                     31                     32                     33
                      A                      A                      A
 Frequencies --    864.5788               865.5941               901.8661
 Red. masses --      4.4668                 1.6598                 1.5159
 Frc consts  --      1.9672                 0.7327                 0.7265
 IR Inten    --     13.7463                 1.1734                24.0715

                     34                     35                     36
                      A                      A                      A
 Frequencies --    937.4071               975.7801               981.3268
 Red. masses --      6.8129                 1.3100                 1.3258
 Frc consts  --      3.5273                 0.7349                 0.7522
 IR Inten    --     20.3467                 0.4416                 2.6583

                     37                     38                     39
                      A                      A                      A
 Frequencies --    981.8253               988.4546              1035.8994
 Red. masses --      1.3066                 3.1026                 1.9902
 Frc consts  --      0.7421                 1.7860                 1.2583
 IR Inten    --      1.8281                 3.3713                29.3445

                     40                     41                     42
                      A                      A                      A
 Frequencies --   1101.9173              1107.4668              1123.4845
 Red. masses --      1.7321                 2.2290                 1.5152
 Frc consts  --      1.2392                 1.6107                 1.1268
 IR Inten    --     12.3409                 8.4329                 1.0046

                     43                     44                     45
                      A                      A                      A
 Frequencies --   1148.8562              1156.3056              1194.8512
 Red. masses --      1.5274                 1.5936                 2.3052
 Frc consts  --      1.1878                 1.2554                 1.9390
 IR Inten    --     37.5680                 5.3851                 2.0619

                     46                     47                     48
                      A                      A                      A
 Frequencies --   1221.7105              1226.0159              1250.9981
 Red. masses --      1.6266                 2.4997                 2.5371
 Frc consts  --      1.4305                 2.2138                 2.3394
 IR Inten    --      9.6442                64.8722                62.4585

                     49                     50                     51
                      A                      A                      A
 Frequencies --   1280.1696              1344.7470              1358.1944
 Red. masses --      2.7165                 2.2053                10.7211
 Frc consts  --      2.6230                 2.3497                11.6524
 IR Inten    --     30.7085                 7.5485                19.5447

                     52                     53                     54
                      A                      A                      A
 Frequencies --   1369.9987              1424.3393              1466.6486
 Red. masses --      7.8411                 2.9702                 2.6131
 Frc consts  --      8.6710                 3.5503                 3.3118
 IR Inten    --      6.9310               356.7082               116.5289

                     55                     56                     57
                      A                      A                      A
 Frequencies --   1481.6953              1496.7567              1526.7269
 Red. masses --      3.4142                 3.4392                 5.1716
 Frc consts  --      4.4163                 4.5395                 7.1023
 IR Inten    --      9.8622                43.2274               450.5760

                     58                     59                     60
                      A                      A                      A
 Frequencies --   1537.8342              1562.4554              1613.2095
 Red. masses --      7.7290                 5.7417                 8.3828
 Frc consts  --     10.7695                 8.2587                12.8535
 IR Inten    --    115.8806                46.0337                14.4871

                     61                     62                     63
                      A                      A                      A
 Frequencies --   1620.8959              1638.5841              1651.5613
 Red. masses --      5.5221                 2.6766                 1.5227
 Frc consts  --      8.5480                 4.2342                 2.4470
 IR Inten    --     79.9641                52.7690               153.0487

                     64                     65                     66
                      A                      A                      A
 Frequencies --   3131.4733              3132.6384              3150.9287
 Red. masses --      1.0845                 1.0878                 1.0910
 Frc consts  --      6.2659                 6.2898                 6.3817
 IR Inten    --     21.7053                34.9644                53.7916

                     67                     68                     69
                      A                      A                      A
 Frequencies --   3160.6345              3179.9770              3181.0086
 Red. masses --      1.0891                 1.0913                 1.0915
 Frc consts  --      6.4101                 6.5022                 6.5075
 IR Inten    --     18.7710                12.6839                22.4017

                     70                     71                     72
                      A                      A                      A
 Frequencies --   3182.8406              3529.6194              3623.2463
 Red. masses --      1.0927                 1.0478                 1.0963
 Frc consts  --      6.5223                 7.6912                 8.4795
 IR Inten    --     25.5942                 0.1808                 4.6662

 - Thermochemistry -
 -------------------
 Temperature   298.150 Kelvin.  Pressure   1.00000 Atm.
 Atom     1 has atomic number  7 and mass  14.00307

 Molecular mass:   223.06333 amu.
 Principal axes and moments of inertia in atomic units:
                           1         2         3
     Eigenvalues --  1740.190485309.203407047.15510
           X            0.97982   0.03245  -0.19725
           Y            0.19908  -0.06918   0.97754
           Z           -0.01807   0.99708   0.07424
 This molecule is an asymmetric top.
 Rotational symmetry number  1.
 Warning -- assumption of classical behavior for rotation
           may cause significant error
 Rotational temperatures (Kelvin)      0.04977     0.01631     0.01229
 Rotational constants (GHZ):           1.03709     0.33993     0.25610
 Zero-point vibrational energy     507346.3 (Joules/Mol)
                                  121.25867 (Kcal/Mol)
 Warning -- explicit consideration of  19 degrees of freedom as
           vibrations may cause significant error
 Vibrational temperatures:     73.26   145.40   193.46   229.49   273.57
          (Kelvin)            294.56   357.62   402.97   434.35   485.46
                              544.44   557.23   601.30   636.38   638.04
                              671.30   704.11   781.62   834.00   925.10
                              931.13   963.14  1001.23  1008.92  1029.65
                             1054.90  1095.68  1119.12  1139.68  1175.69
                             1243.94  1245.40  1297.58  1348.72  1403.93
                             1411.91  1412.63  1422.17  1490.43  1585.41
                             1593.40  1616.44  1652.95  1663.67  1719.12
                             1757.77  1763.96  1799.91  1841.88  1934.79
                             1954.14  1971.12  2049.31  2110.18  2131.83
                             2153.50  2196.62  2212.60  2248.02  2321.05
                             2332.11  2357.56  2376.23  4505.49  4507.17
                             4533.48  4547.45  4575.28  4576.76  4579.40
                             5078.34  5213.04

 Zero-point correction=                           0.193238 (Hartree/Particle)
 Thermal correction to Energy=                    0.205958
 Thermal correction to Enthalpy=                  0.206902
 Thermal correction to Gibbs Free Energy=         0.153774
 Sum of electronic and zero-point Energies=           -744.200377
 Sum of electronic and thermal Energies=              -744.187657
 Sum of electronic and thermal Enthalpies=            -744.186713
 Sum of electronic and thermal Free Energies=         -744.239841

                     E (Thermal)             CV                S
                      KCal/Mol        Cal/Mol-Kelvin    Cal/Mol-Kelvin
 Total                  129.240             52.115            111.817
 Electronic               0.000              0.000              1.377
 Translational            0.889              2.981             42.109
 Rotational               0.889              2.981             32.543
 Vibrational            127.463             46.153             35.788
 Vibration     1          0.595              1.977              4.781
 Vibration     2          0.604              1.948              3.434
 Vibration     3          0.613              1.919              2.881
 Vibration     4          0.621              1.892              2.556
 Vibration     5          0.633              1.853              2.226
 Vibration     6          0.640              1.833              2.090
 Vibration     7          0.662              1.765              1.741
 Vibration     8          0.680              1.710              1.533
 Vibration     9          0.694              1.670              1.406
 Vibration    10          0.718              1.601              1.224
 Vibration    11          0.749              1.516              1.046
 Vibration    12          0.756              1.497              1.011
 Vibration    13          0.781              1.431              0.899
 Vibration    14          0.802              1.378              0.819
 Vibration    15          0.803              1.375              0.816
 Vibration    16          0.824              1.324              0.747
 Vibration    17          0.845              1.274              0.685
 Vibration    18          0.898              1.154              0.558
 Vibration    19          0.936              1.075              0.486

 Optimization completed.
    -- Stationary point found.
 Normal termination of Gaussian 16 at Thu Dec 21 06:59:17 2023.
