 Q-Chem 5.4, Q-Chem, Inc., Pleasanton, CA (2021)
 Q-Chem 5.4.0 for Intel X86 EM64T Linux

User input:
--------------------------------------------------------------
$molecule
-1 2
C                 -3.7593750000      1.7706550000     -0.3502070000
C                 -2.5272090000      0.9217370000     -0.1401410000
C                 -1.2717880000      1.4311590000     -0.4143900000
C                 -0.0900650000      0.6805810000     -0.2354050000
C                  1.2032790000      1.2893790000     -0.5478900000
O                  1.3004530000      2.4683620000     -0.9745360000
C                  2.3777960000      0.4419260000     -0.3335360000
C                  3.6621880000      0.9599270000     -0.6129130000
C                  4.7987140000      0.1989670000     -0.4264010000
C                  4.6881250000     -1.1258350000      0.0529830000
C                  3.4439680000     -1.6542040000      0.3330410000
C                  2.2661390000     -0.8956550000      0.1504690000
C                  0.9703040000     -1.5018340000      0.4619970000
O                  0.8707370000     -2.6806310000      0.8885800000
C                 -0.2013390000     -0.6522090000      0.2466580000
C                 -1.4882330000     -1.1615140000      0.5230020000
C                 -2.6389650000     -0.4169010000      0.3436680000
C                 -3.9917900000     -1.0132890000      0.6556520000
H                 -3.4856880000      2.7608240000     -0.7212280000
H                 -4.4491290000      1.3208360000     -1.0752350000
H                 -4.3273820000      1.9067980000      0.5785430000
H                 -1.1567370000      2.4451570000     -0.7832290000
H                  3.7169000000      1.9787490000     -0.9793590000
H                  5.7769800000      0.6161720000     -0.6472400000
H                  5.5814870000     -1.7258810000      0.2002330000
H                  3.3290800000     -2.6671630000      0.7017910000
H                 -1.5430000000     -2.1814090000      0.8894640000
H                 -4.5227040000     -0.4444900000      1.4291860000
H                 -4.6461870000     -1.0295500000     -0.2248110000
H                 -3.8865600000     -2.0406650000      1.0112540000
$end
$rem
MAX_SCF_CYCLES=200
BASIS  =  6-311++G(d,p)
GUI  =  2
JOB_TYPE  =  SP
METHOD  =  B3LYP
SOLVENT_METHOD = PCM
$end
$pcm
theory = CPCM
$end
$solvent
dielectric 37.219
opticaldielectric 1.43
$end

--------------------------------------------------------------

             Standard Nuclear Orientation (Angstroms)
    I     Atom           X                Y                Z
 ----------------------------------------------------------------
    1      C      -3.7593750000     1.7706550000    -0.3502070000
    2      C      -2.5272090000     0.9217370000    -0.1401410000
    3      C      -1.2717880000     1.4311590000    -0.4143900000
    4      C      -0.0900650000     0.6805810000    -0.2354050000
    5      C       1.2032790000     1.2893790000    -0.5478900000
    6      O       1.3004530000     2.4683620000    -0.9745360000
    7      C       2.3777960000     0.4419260000    -0.3335360000
    8      C       3.6621880000     0.9599270000    -0.6129130000
    9      C       4.7987140000     0.1989670000    -0.4264010000
   10      C       4.6881250000    -1.1258350000     0.0529830000
   11      C       3.4439680000    -1.6542040000     0.3330410000
   12      C       2.2661390000    -0.8956550000     0.1504690000
   13      C       0.9703040000    -1.5018340000     0.4619970000
   14      O       0.8707370000    -2.6806310000     0.8885800000
   15      C      -0.2013390000    -0.6522090000     0.2466580000
   16      C      -1.4882330000    -1.1615140000     0.5230020000
   17      C      -2.6389650000    -0.4169010000     0.3436680000
   18      C      -3.9917900000    -1.0132890000     0.6556520000
   19      H      -3.4856880000     2.7608240000    -0.7212280000
   20      H      -4.4491290000     1.3208360000    -1.0752350000
   21      H      -4.3273820000     1.9067980000     0.5785430000
   22      H      -1.1567370000     2.4451570000    -0.7832290000
   23      H       3.7169000000     1.9787490000    -0.9793590000
   24      H       5.7769800000     0.6161720000    -0.6472400000
   25      H       5.5814870000    -1.7258810000     0.2002330000
   26      H       3.3290800000    -2.6671630000     0.7017910000
   27      H      -1.5430000000    -2.1814090000     0.8894640000
   28      H      -4.5227040000    -0.4444900000     1.4291860000
   29      H      -4.6461870000    -1.0295500000    -0.2248110000
   30      H      -3.8865600000    -2.0406650000     1.0112540000
 ----------------------------------------------------------------

    8    -767.7534855173      5.31e-06  Convergence criterion met
 Total energy in the final basis set =     -767.7534855173

                    Orbital Energies (a.u.)
 --------------------------------------------------------------

 Alpha MOs
 -- Occupied --
-19.0757 -19.0757 -10.2233 -10.2233 -10.1777 -10.1773 -10.1713 -10.1709
-10.1706 -10.1702 -10.1685 -10.1683 -10.1682 -10.1680 -10.1631 -10.1631
-10.1593 -10.1593  -1.0030  -1.0006  -0.8619  -0.8517  -0.7946  -0.7622
 -0.7514  -0.7492  -0.7030  -0.6828  -0.6537  -0.6191  -0.5975  -0.5846
 -0.5543  -0.5183  -0.5149  -0.4754  -0.4639  -0.4475  -0.4388  -0.4316
 -0.4219  -0.4204  -0.4164  -0.4164  -0.4127  -0.3956  -0.3940  -0.3808
 -0.3803  -0.3726  -0.3641  -0.3582  -0.3397  -0.3383  -0.3284  -0.3275
 -0.2634  -0.2567  -0.2497  -0.2473  -0.2376  -0.2371  -0.1401

 Beta MOs
 -- Occupied --
-19.0706 -19.0706 -10.2213 -10.2213 -10.1773 -10.1768 -10.1705 -10.1701
-10.1701 -10.1697 -10.1682 -10.1682 -10.1679 -10.1674 -10.1630 -10.1629
-10.1594 -10.1594  -0.9938  -0.9912  -0.8596  -0.8503  -0.7914  -0.7607
 -0.7495  -0.7470  -0.7006  -0.6813  -0.6474  -0.6179  -0.5949  -0.5841
 -0.5517  -0.5159  -0.5133  -0.4739  -0.4618  -0.4458  -0.4380  -0.4289
 -0.4215  -0.4196  -0.4146  -0.4072  -0.4044  -0.3937  -0.3933  -0.3806
 -0.3720  -0.3630  -0.3571  -0.3541  -0.3392  -0.3371  -0.3263  -0.3170
 -0.2516  -0.2457  -0.2426  -0.2412  -0.2325  -0.2319

          Ground-State Mulliken Net Atomic Charges

     Atom                 Charge (a.u.)    Spin (a.u.)
  --------------------------------------------------------
      1 C                    -0.524427      -0.002504
      2 C                     0.340332       0.036714
      3 C                    -0.156301       0.027200
      4 C                     0.004270       0.021498
      5 C                    -0.504226       0.110979
      6 O                    -0.486265       0.194571
      7 C                     0.228120       0.041327
      8 C                     0.031996       0.032158
      9 C                    -0.444634       0.041356
     10 C                    -0.446493       0.041371
     11 C                     0.032745       0.032076
     12 C                     0.227900       0.041289
     13 C                    -0.504881       0.110977
     14 O                    -0.486155       0.194570
     15 C                     0.003551       0.021463
     16 C                    -0.155838       0.027182
     17 C                     0.345924       0.036724
     18 C                    -0.523017      -0.002504
     19 H                     0.179273       0.000165
     20 H                     0.166141       0.001759
     21 H                     0.166150       0.001763
     22 H                     0.132384      -0.002233
     23 H                     0.167751      -0.001316
     24 H                     0.197272      -0.003366
     25 H                     0.197184      -0.003366
     26 H                     0.167267      -0.001321
     27 H                     0.132718      -0.002225
     28 H                     0.166416       0.001768
     29 H                     0.165789       0.001760
     30 H                     0.179051       0.000167
  --------------------------------------------------------
  Sum of atomic charges =    -1.000000

                    Cartesian Multipole Moments
 -----------------------------------------------------------------
    Charge (ESU x 10^10)
                -4.8032
    Dipole Moment (Debye)
         X      -6.7838      Y       0.6624      Z       0.2701
       Tot       6.8214
    Quadrupole Moments (Debye-Ang)
        XX    -103.2674     XY      -3.1749     YY    -139.4730
        XZ       0.4471     YZ       9.8710     ZZ    -115.9696

 Total job time:  155.28s(wall), 417.64s(cpu)
        *  Thank you very much for using Q-Chem.  Have a nice day.  *
