 Gaussian 16, Revision A.03,
 Gaussian 16:  ES64L-G16RevA.03 25-Dec-2016

 ----------------------------------------------------------------------
 #P UB3LYP/6-311++G(d,p) nosym opt freq SCRF=(PCM,Solvent=n,n-DiMethylF
 ormamide)
 ----------------------------------------------------------------------

 --------
 Oxidized
 --------
 Symbolic Z-matrix:
 Charge =  0 Multiplicity = 1

 SCF Done:  E(UB3LYP) =  -2015.37008890     A.U. after   16 cycles
 SCF Done:  E(UB3LYP) =  -2015.37057373     A.U. after   13 cycles
 SCF Done:  E(UB3LYP) =  -2015.37068248     A.U. after   12 cycles
 SCF Done:  E(UB3LYP) =  -2015.37067253     A.U. after   12 cycles
 SCF Done:  E(UB3LYP) =  -2015.37069229     A.U. after   12 cycles
 SCF Done:  E(UB3LYP) =  -2015.37072075     A.U. after   12 cycles
 SCF Done:  E(UB3LYP) =  -2015.37072269     A.U. after   12 cycles
 SCF Done:  E(UB3LYP) =  -2015.37072545     A.U. after   11 cycles
 SCF Done:  E(UB3LYP) =  -2015.37072780     A.U. after   12 cycles
 SCF Done:  E(UB3LYP) =  -2015.37072869     A.U. after   10 cycles
 SCF Done:  E(UB3LYP) =  -2015.37073025     A.U. after   12 cycles
 SCF Done:  E(UB3LYP) =  -2015.37073166     A.U. after   11 cycles
 SCF Done:  E(UB3LYP) =  -2015.37073270     A.U. after   10 cycles
 SCF Done:  E(UB3LYP) =  -2015.37073301     A.U. after   11 cycles
 Optimization completed.
    -- Stationary point found.
 Normal termination of Gaussian 16 at Sat Feb 10 23:54:50 2024.

 ----------------------------------------------------------------------
 #P Geom=AllCheck Guess=TCheck SCRF=Check GenChk UB3LYP/6-311++G(d,p) F
 req
 ----------------------------------------------------------------------

 Structure from the checkpoint file:  "216.chk"
 --------
 Oxidized
 --------
 Charge =  0 Multiplicity = 1

                          Input orientation:
 ---------------------------------------------------------------------
 Center     Atomic      Atomic             Coordinates (Angstroms)
 Number     Number       Type             X           Y           Z
 ---------------------------------------------------------------------
      1          6           0        5.123331   -2.768089    0.146153
      2          6           0        5.921146   -2.128300   -0.792887
      3          6           0        5.319244   -1.254228   -1.699217
      4          6           0        3.745323   -2.536373    0.177109
      5          6           0        3.157756   -1.654641   -0.746191
      6          6           0        3.954741   -1.008367   -1.693784
      7          6           0        2.917209   -3.239621    1.202879
      8          6           0        1.450097   -2.973181    1.204379
      9          6           0        0.862529   -2.091449    0.281078
     10          6           0        1.690637   -1.388237   -0.744722
     11          6           0        0.653120   -3.619418    2.152002
     12          6           0       -0.515472   -1.859703    0.312060
     13          6           0       -1.313281   -2.499459    1.251129
     14          8           0        3.423341   -4.002797    2.008189
     15          8           0        1.184508   -0.625049   -1.550022
     16          1           0        5.559116   -3.452590    0.861776
     17          1           0        6.987592   -2.308515   -0.827679
     18         16           0        6.341728   -0.420912   -2.912939
     19          1           0       -2.379722   -2.319222    1.285943
     20          1           0        3.499002   -0.335048   -2.407378
     21          1           0        1.108863   -4.292733    2.865597
     22          1           0       -0.951259   -1.175206   -0.403565
     23          6           0       -0.711378   -3.373526    2.157462
     24         16           0       -1.733851   -4.206796    3.371225
     25          8           0       -0.916005   -4.627863    4.505405
     26          8           0       -2.938421   -3.421397    3.627525
     27          8           0       -2.120884   -5.505675    2.472597
     28          6           0       -3.008106   -6.493951    3.080412
     29          1           0       -2.543212   -6.917044    3.970542
     30          1           0       -3.126847   -7.257032    2.316301
     31          1           0       -3.969740   -6.038639    3.315527
     32          8           0        5.523859    0.000351   -4.047028
     33          8           0        7.546220   -1.206383   -3.169388
     34          8           0        6.728923    0.877829   -2.014181
     35          6           0        7.616311    1.866028   -2.621878
     36          1           0        7.151515    2.289263   -3.511992
     37          1           0        8.577889    1.410595   -2.856991
     38          1           0        7.735130    2.629029   -1.857699
 ---------------------------------------------------------------------

 SCF Done:  E(UB3LYP) =  -2015.37073301     A.U. after    2 cycles

 Alpha  occ. eigenvalues --  -89.10540 -89.10540 -19.19411 -19.19411 -19.15061
 Alpha  occ. eigenvalues --  -19.15061 -19.15050 -19.15050 -19.14943 -19.14943
 Alpha  occ. eigenvalues --  -10.30193 -10.30192 -10.25208 -10.25208 -10.24210
 Alpha  occ. eigenvalues --  -10.24210 -10.23358 -10.23357 -10.23228 -10.23228
 Alpha  occ. eigenvalues --  -10.22911 -10.22911 -10.22856 -10.22856 -10.21936
 Alpha  occ. eigenvalues --  -10.21936  -8.16617  -8.16617  -6.12985  -6.12985
 Alpha  occ. eigenvalues --   -6.12808  -6.12808  -6.12693  -6.12693  -1.17341
 Alpha  occ. eigenvalues --   -1.17341  -1.08437  -1.08251  -1.06443  -1.06443
 Alpha  occ. eigenvalues --   -1.04286  -1.04285  -0.92290  -0.91441  -0.85022
 Alpha  occ. eigenvalues --   -0.82024  -0.80749  -0.80408  -0.76553  -0.75729
 Alpha  occ. eigenvalues --   -0.71595  -0.70528  -0.68106  -0.66392  -0.63881
 Alpha  occ. eigenvalues --   -0.62836  -0.61050  -0.59042  -0.58497  -0.56755
 Alpha  occ. eigenvalues --   -0.54341  -0.53834  -0.53136  -0.52974  -0.51691
 Alpha  occ. eigenvalues --   -0.50947  -0.50246  -0.49205  -0.47856  -0.47758
 Alpha  occ. eigenvalues --   -0.47562  -0.47486  -0.47364  -0.47027  -0.46960
 Alpha  occ. eigenvalues --   -0.46436  -0.46417  -0.44331  -0.43618  -0.42703
 Alpha  occ. eigenvalues --   -0.42007  -0.41872  -0.41656  -0.40866  -0.39605
 Alpha  occ. eigenvalues --   -0.39463  -0.37140  -0.37134  -0.36721  -0.36679
 Alpha  occ. eigenvalues --   -0.35287  -0.35232  -0.35192  -0.35173  -0.31853
 Alpha  occ. eigenvalues --   -0.31850  -0.31351  -0.30568  -0.30498  -0.30391
 Alpha  occ. eigenvalues --   -0.29916  -0.29395
 Alpha virt. eigenvalues --   -0.13968  -0.10173  -0.07120  -0.05600  -0.01585
 Alpha virt. eigenvalues --   -0.01278  -0.01018   0.00511   0.00671   0.00971
 Alpha virt. eigenvalues --    0.01390   0.01759   0.01864   0.02523   0.02600

  Beta  occ. eigenvalues --  -89.10540 -89.10540 -19.19411 -19.19411 -19.15061
  Beta  occ. eigenvalues --  -19.15061 -19.15050 -19.15050 -19.14943 -19.14943
  Beta  occ. eigenvalues --  -10.30193 -10.30192 -10.25208 -10.25208 -10.24210
  Beta  occ. eigenvalues --  -10.24210 -10.23358 -10.23357 -10.23228 -10.23228
  Beta  occ. eigenvalues --  -10.22911 -10.22911 -10.22856 -10.22856 -10.21936
  Beta  occ. eigenvalues --  -10.21936  -8.16617  -8.16617  -6.12985  -6.12985
  Beta  occ. eigenvalues --   -6.12808  -6.12808  -6.12693  -6.12693  -1.17341
  Beta  occ. eigenvalues --   -1.17341  -1.08437  -1.08251  -1.06443  -1.06443
  Beta  occ. eigenvalues --   -1.04286  -1.04285  -0.92290  -0.91441  -0.85022
  Beta  occ. eigenvalues --   -0.82024  -0.80749  -0.80408  -0.76553  -0.75729
  Beta  occ. eigenvalues --   -0.71595  -0.70528  -0.68106  -0.66392  -0.63881
  Beta  occ. eigenvalues --   -0.62836  -0.61050  -0.59042  -0.58497  -0.56755
  Beta  occ. eigenvalues --   -0.54341  -0.53834  -0.53136  -0.52974  -0.51691
  Beta  occ. eigenvalues --   -0.50947  -0.50246  -0.49205  -0.47856  -0.47758
  Beta  occ. eigenvalues --   -0.47562  -0.47486  -0.47364  -0.47027  -0.46960
  Beta  occ. eigenvalues --   -0.46436  -0.46417  -0.44331  -0.43618  -0.42703
  Beta  occ. eigenvalues --   -0.42007  -0.41872  -0.41656  -0.40866  -0.39605
  Beta  occ. eigenvalues --   -0.39463  -0.37140  -0.37134  -0.36721  -0.36679
  Beta  occ. eigenvalues --   -0.35287  -0.35232  -0.35192  -0.35173  -0.31853
  Beta  occ. eigenvalues --   -0.31850  -0.31351  -0.30568  -0.30498  -0.30391
  Beta  occ. eigenvalues --   -0.29916  -0.29395
  Beta virt. eigenvalues --   -0.13968  -0.10173  -0.07120  -0.05600  -0.01585
  Beta virt. eigenvalues --   -0.01278  -0.01018   0.00511   0.00671   0.00971
  Beta virt. eigenvalues --    0.01390   0.01759   0.01864   0.02523   0.02600

 Mulliken charges and spin densities:
               1          2
     1  C    0.073653   0.000000
     2  C   -0.300090  -0.000000
     3  C   -0.953340   0.000000
     4  C    0.636353  -0.000000
     5  C    0.254210  -0.000000
     6  C    0.233702   0.000000
     7  C   -0.694350   0.000000
     8  C    0.254153  -0.000000
     9  C    0.636297   0.000000
    10  C   -0.694373   0.000000
    11  C    0.233609   0.000000
    12  C    0.073741   0.000000
    13  C   -0.299970  -0.000000
    14  O   -0.223884   0.000000
    15  O   -0.223883   0.000000
    16  H    0.199864  -0.000000
    17  H    0.261750   0.000000
    18  S    0.283145  -0.000000
    19  H    0.261751   0.000000
    20  H    0.240028  -0.000000
    21  H    0.240020   0.000000
    22  H    0.199865  -0.000000
    23  C   -0.953329  -0.000000
    24  S    0.283097  -0.000000
    25  O   -0.198331   0.000000
    26  O   -0.206532  -0.000000
    27  O   -0.030913  -0.000000
    28  C   -0.132615   0.000000
    29  H    0.181610   0.000000
    30  H    0.195678  -0.000000
    31  H    0.180089   0.000000
    32  O   -0.198298  -0.000000
    33  O   -0.206554  -0.000000
    34  O   -0.030910  -0.000000
    35  C   -0.132620   0.000000
    36  H    0.181610   0.000000
    37  H    0.180089  -0.000000
    38  H    0.195678  -0.000000
 Sum of Mulliken charges =  -0.00000  -0.00000

 Dipole moment (field-independent basis, Debye):
    X=              0.0005    Y=             -0.0004    Z=              0.0003  Tot=              0.0007
 Quadrupole moment (field-independent basis, Debye-Ang):
   XX=           -149.0262   YY=           -140.1939   ZZ=           -211.8029
   XY=             30.2814   XZ=             17.8802   YZ=              2.9603

  Exact polarizability: 439.755  19.837 294.625 -63.453-104.422 329.590
 Approx polarizability: 481.692 -26.167 343.616 -22.665-119.287 386.413

                      1                      2                      3
                      A                      A                      A
 Frequencies --      9.1665                15.5018                16.4597
 Red. masses --      5.0900                 8.1597                 5.1818
 Frc consts  --      0.0003                 0.0012                 0.0008
 IR Inten    --      8.1608                 1.3203                 0.0000

                      4                      5                      6
                      A                      A                      A
 Frequencies --     37.1278                39.4091                55.2123
 Red. masses --      3.1719                 3.2722                 6.0614
 Frc consts  --      0.0026                 0.0030                 0.0109
 IR Inten    --      6.1885                 0.0000                 0.0000

                      7                      8                      9
                      A                      A                      A
 Frequencies --     60.2245                78.5799               111.9754
 Red. masses --      6.6353                10.7838                 7.2488
 Frc consts  --      0.0142                 0.0392                 0.0536
 IR Inten    --      8.2899                11.6353                 0.0000

                     10                     11                     12
                      A                      A                      A
 Frequencies --    112.3042               122.9883               138.7092
 Red. masses --      4.3293                 5.6208                 1.1313
 Frc consts  --      0.0322                 0.0501                 0.0128
 IR Inten    --      4.1262                 0.0000                 2.0475

                     13                     14                     15
                      A                      A                      A
 Frequencies --    139.2374               147.3098               170.3129
 Red. masses --      1.1830                 7.2338                 7.7213
 Frc consts  --      0.0135                 0.0925                 0.1320
 IR Inten    --      0.0003                14.2743                 0.0000

                     16                     17                     18
                      A                      A                      A
 Frequencies --    193.4073               216.1893               233.5620
 Red. masses --      7.4050                10.3988                 5.2084
 Frc consts  --      0.1632                 0.2864                 0.1674
 IR Inten    --      0.0000                 2.6281                47.5618

                     19                     20                     21
                      A                      A                      A
 Frequencies --    257.3594               260.6611               264.2535
 Red. masses --      5.1059                 9.7540                13.1449
 Frc consts  --      0.1993                 0.3905                 0.5408
 IR Inten    --      0.0000                 5.4552                 0.0000

                     22                     23                     24
                      A                      A                      A
 Frequencies --    326.3412               337.0618               361.4875
 Red. masses --      5.7574                 5.5707                 7.1899
 Frc consts  --      0.3613                 0.3729                 0.5536
 IR Inten    --     14.6731                 0.0000                21.7407

                     25                     26                     27
                      A                      A                      A
 Frequencies --    368.1419               399.8819               411.2138
 Red. masses --      7.4829                 7.5895                10.4908
 Frc consts  --      0.5975                 0.7150                 1.0452
 IR Inten    --      0.0000                 0.0000               111.1088

                     28                     29                     30
                      A                      A                      A
 Frequencies --    418.9840               443.9323               453.6227
 Red. masses --      3.3748                 3.3466                11.5387
 Frc consts  --      0.3490                 0.3886                 1.3989
 IR Inten    --      1.4004                 0.0000                 0.0000

                     31                     32                     33
                      A                      A                      A
 Frequencies --    466.5575               470.5275               477.0563
 Red. masses --     10.1151                11.1935                10.4872
 Frc consts  --      1.2973                 1.4601                 1.4062
 IR Inten    --      0.0000                39.0202                 0.0033

                     34                     35                     36
                      A                      A                      A
 Frequencies --    477.3896               506.8046               520.2821
 Red. masses --     10.6810                 8.3082                 8.2808
 Frc consts  --      1.4342                 1.2573                 1.3207
 IR Inten    --     47.3716                 0.0000                 0.0000

                     37                     38                     39
                      A                      A                      A
 Frequencies --    569.8860               600.0391               623.0042
 Red. masses --      5.0655                 9.8433                 9.6664
 Frc consts  --      0.9693                 2.0881                 2.2105
 IR Inten    --     35.2899               358.7077                 0.0000

                     40                     41                     42
                      A                      A                      A
 Frequencies --    654.1984               668.9018               676.9355
 Red. masses --      7.4976                 5.0216                 7.8378
 Frc consts  --      1.8906                 1.3238                 2.1161
 IR Inten    --     34.8475                 0.0000               257.4349

                     43                     44                     45
                      A                      A                      A
 Frequencies --    694.9536               697.5198               704.2908
 Red. masses --      6.7621                 7.0123                 8.6588
 Frc consts  --      1.9242                 2.0101                 2.5305
 IR Inten    --      0.0000                 0.0000               630.0887

                     46                     47                     48
                      A                      A                      A
 Frequencies --    725.2856               747.0307               759.2900
 Red. masses --      3.7963                 8.7458                 5.2386
 Frc consts  --      1.1766                 2.8756                 1.7794
 IR Inten    --     57.0672                 0.0000                 7.4377

                     49                     50                     51
                      A                      A                      A
 Frequencies --    814.8835               850.8095               870.6355
 Red. masses --      3.4102                 7.4016                 1.6116
 Frc consts  --      1.3342                 3.1568                 0.7197
 IR Inten    --      0.0000                26.4748                 0.0000

                     52                     53                     54
                      A                      A                      A
 Frequencies --    874.0131               948.1736               949.3624
 Red. masses --      1.4963                 1.8837                 2.1558
 Frc consts  --      0.6734                 0.9978                 1.1448
 IR Inten    --     17.2996                 0.0007               347.2754

                     55                     56                     57
                      A                      A                      A
 Frequencies --    956.3886               957.8403               967.0258
 Red. masses --      3.4528                 4.3448                 7.1653
 Frc consts  --      1.8607                 2.3486                 3.9479
 IR Inten    --    849.0948                 0.0005                 0.0000

                     58                     59                     60
                      A                      A                      A
 Frequencies --    970.6168              1011.2080              1013.2196
 Red. masses --      5.5581                 1.3626                 1.3817
 Frc consts  --      3.0851                 0.8209                 0.8358
 IR Inten    --    103.8866                 0.0000                 1.2420

                     61                     62                     63
                      A                      A                      A
 Frequencies --   1080.9349              1081.4001              1101.3179
 Red. masses --      3.1066                 2.4761                 5.3948
 Frc consts  --      2.1386                 1.7060                 3.8553
 IR Inten    --      0.0001                92.9245               638.7514

                     64                     65                     66
                      A                      A                      A
 Frequencies --   1116.1069              1138.2130              1138.3727
 Red. masses --      3.4541                 1.9000                 2.7691
 Frc consts  --      2.5351                 1.4503                 2.1142
 IR Inten    --      0.0000                 0.0017               337.6857

                     67                     68                     69
                      A                      A                      A
 Frequencies --   1161.2722              1161.2745              1181.3375
 Red. masses --      1.2551                 1.2550                 1.4190
 Frc consts  --      0.9972                 0.9972                 1.1667
 IR Inten    --      6.7178                 0.0833                11.8742

                     70                     71                     72
                      A                      A                      A
 Frequencies --   1181.8557              1183.6693              1187.5599
 Red. masses --      1.3727                 1.6601                 3.8437
 Frc consts  --      1.1297                 1.3704                 3.1938
 IR Inten    --      0.0000               106.9289                 0.0000

                     73                     74                     75
                      A                      A                      A
 Frequencies --   1228.1832              1263.7851              1266.1020
 Red. masses --      1.8006                 5.8179                19.2965
 Frc consts  --      1.6002                 5.4747                18.2249
 IR Inten    --      0.0000               872.4734                 0.0000

                     76                     77                     78
                      A                      A                      A
 Frequencies --   1274.7752              1293.8220              1296.3632
 Red. masses --      1.7443                 1.8388                 5.4466
 Frc consts  --      1.6701                 1.8136                 5.3930
 IR Inten    --     37.6237                 0.0000               998.2347

                     79                     80                     81
                      A                      A                      A
 Frequencies --   1347.2858              1359.9511              1424.0085
 Red. masses --      9.7715                 8.3050                 3.8276
 Frc consts  --     10.4503                 9.0497                 4.5730
 IR Inten    --     35.1125                 0.0000                13.2301

                     82                     83                     84
                      A                      A                      A
 Frequencies --   1442.0046              1458.3608              1458.3743
 Red. masses --      4.9054                 1.1317                 1.1315
 Frc consts  --      6.0097                 1.4181                 1.4179
 IR Inten    --      0.0000                 4.7506                 0.0004

                     85                     86                     87
                      A                      A                      A
 Frequencies --   1475.6322              1475.6358              1488.1616
 Red. masses --      1.0445                 1.0446                 1.0476
 Frc consts  --      1.3400                 1.3402                 1.3669
 IR Inten    --     25.9844                 0.9813                41.9908

                     88                     89                     90
                      A                      A                      A
 Frequencies --   1488.1620              1494.7000              1502.8027
 Red. masses --      1.0475                 2.5809                 2.5590
 Frc consts  --      1.3668                 3.3972                 3.4051
 IR Inten    --      0.5782                26.5527                 0.0000

                     91                     92                     93
                      A                      A                      A
 Frequencies --   1598.8563              1612.3617              1619.7408
 Red. masses --      7.8145                 8.5472                 6.4978
 Frc consts  --     11.7698                13.0918                10.0440
 IR Inten    --     12.5329                 0.0000               267.0780

                     94                     95                     96
                      A                      A                      A
 Frequencies --   1628.3031              1714.0597              1719.4269
 Red. masses --      6.3914                12.7323                12.2548
 Frc consts  --      9.9843                22.0399                21.3463
 IR Inten    --      0.0000                 0.0000               776.6784

                     97                     98                     99
                      A                      A                      A
 Frequencies --   3058.4969              3058.5057              3145.5240
 Red. masses --      1.0285                 1.0285                 1.1099
 Frc consts  --      5.6686                 5.6687                 6.4701
 IR Inten    --     82.6584                 0.0947                 3.9198

                    100                    101                    102
                      A                      A                      A
 Frequencies --   3145.5247              3174.1022              3174.1024
 Red. masses --      1.1099                 1.1065                 1.1065
 Frc consts  --      6.4702                 6.5683                 6.5683
 IR Inten    --     26.0993                 0.0911                 9.7242

                    103                    104                    105
                      A                      A                      A
 Frequencies --   3207.2104              3207.2235              3216.2996
 Red. masses --      1.0892                 1.0893                 1.0916
 Frc consts  --      6.6013                 6.6016                 6.6533
 IR Inten    --      7.9353                 0.0138                 0.0034

                    106                    107                    108
                      A                      A                      A
 Frequencies --   3216.3799              3217.8573              3218.0401
 Red. masses --      1.0916                 1.0954                 1.0953
 Frc consts  --      6.6533                 6.6828                 6.6829
 IR Inten    --     19.8743                 0.3048                 0.0000

 - Thermochemistry -
 -------------------
 Temperature   298.150 Kelvin.  Pressure   1.00000 Atm.
 Atom     1 has atomic number  6 and mass  12.00000

 Molecular mass:   395.99736 amu.
 Principal axes and moments of inertia in atomic units:
                           1         2         3
     Eigenvalues --  2931.49716********************
           X            0.75740   0.64118   0.12344
           Y            0.39168  -0.59740   0.69978
           Z           -0.52242   0.48167   0.70361
 This molecule is an asymmetric top.
 Rotational symmetry number  1.
 Warning -- assumption of classical behavior for rotation
           may cause significant error
 Rotational temperatures (Kelvin)      0.02955     0.00304     0.00289
 Rotational constants (GHZ):           0.61564     0.06337     0.06022
 Zero-point vibrational energy     688499.9 (Joules/Mol)
                                  164.55542 (Kcal/Mol)
 Warning -- explicit consideration of  38 degrees of freedom as
           vibrations may cause significant error
 Vibrational temperatures:     13.19    22.30    23.68    53.42    56.70
          (Kelvin)             79.44    86.65   113.06   161.11   161.58
                              176.95   199.57   200.33   211.95   245.04
                              278.27   311.05   336.04   370.28   375.03
                              380.20   469.53   484.96   520.10   529.67
                              575.34   591.65   602.82   638.72   652.66
                              671.27   676.98   686.38   686.86   729.18
                              748.57   819.94   863.32   896.36   941.25
                              962.40   973.96   999.88  1003.58  1013.32
                             1043.52  1074.81  1092.45  1172.44  1224.13
                             1252.65  1257.51  1364.21  1365.92  1376.03
                             1378.12  1391.33  1396.50  1454.90  1457.80
                             1555.22  1555.89  1584.55  1605.83  1637.63
                             1637.86  1670.81  1670.81  1699.68  1700.43
                             1703.04  1708.63  1767.08  1818.30  1821.64
                             1834.12  1861.52  1865.18  1938.44  1956.67
                             2048.83  2074.72  2098.26  2098.28  2123.11
                             2123.11  2141.13  2141.13  2150.54  2162.20
                             2300.40  2319.83  2330.45  2342.76  2466.15
                             2473.87  4400.49  4400.51  4525.71  4525.71
                             4566.83  4566.83  4614.46  4614.48  4627.54
                             4627.65  4629.78  4630.04

 Zero-point correction=                           0.262236 (Hartree/Particle)
 Thermal correction to Energy=                    0.286467
 Thermal correction to Enthalpy=                  0.287411
 Thermal correction to Gibbs Free Energy=         0.203195
 Sum of electronic and zero-point Energies=          -2015.108497
 Sum of electronic and thermal Energies=             -2015.084266
 Sum of electronic and thermal Enthalpies=           -2015.083322
 Sum of electronic and thermal Free Energies=        -2015.167538

                     E (Thermal)             CV                S
                      KCal/Mol        Cal/Mol-Kelvin    Cal/Mol-Kelvin
 Total                  179.761             88.354            177.247
 Electronic               0.000              0.000              0.000
 Translational            0.889              2.981             43.820
 Rotational               0.889              2.981             36.168
 Vibrational            177.983             82.393             97.258
 Vibration     1          0.593              1.987              8.184
 Vibration     2          0.593              1.986              7.140
 Vibration     3          0.593              1.986              7.021
 Vibration     4          0.594              1.982              5.407
 Vibration     5          0.594              1.981              5.289
 Vibration     6          0.596              1.975              4.621
 Vibration     7          0.597              1.973              4.450
 Vibration     8          0.600              1.964              3.926
 Vibration     9          0.607              1.940              3.234
 Vibration    10          0.607              1.939              3.229
 Vibration    11          0.610              1.930              3.053
 Vibration    12          0.614              1.915              2.822
 Vibration    13          0.615              1.914              2.814
 Vibration    14          0.617              1.906              2.707
 Vibration    15          0.625              1.879              2.432
 Vibration    16          0.635              1.849              2.195
 Vibration    17          0.645              1.816              1.991
 Vibration    18          0.654              1.790              1.851
 Vibration    19          0.667              1.750              1.680
 Vibration    20          0.669              1.745              1.657
 Vibration    21          0.671              1.738              1.634
 Vibration    22          0.710              1.623              1.278
 Vibration    23          0.718              1.601              1.226
 Vibration    24          0.736              1.552              1.116
 Vibration    25          0.741              1.538              1.088
 Vibration    26          0.766              1.470              0.963
 Vibration    27          0.775              1.446              0.922
 Vibration    28          0.782              1.429              0.895
 Vibration    29          0.803              1.374              0.814
 Vibration    30          0.812              1.353              0.785
 Vibration    31          0.824              1.324              0.747
 Vibration    32          0.828              1.315              0.736
 Vibration    33          0.834              1.301              0.718
 Vibration    34          0.834              1.300              0.717
 Vibration    35          0.862              1.235              0.641
 Vibration    36          0.875              1.205              0.609
 Vibration    37          0.926              1.096              0.504
 Vibration    38          0.958              1.032              0.450

                           ! Non-Optimized Parameters !
 Normal termination of Gaussian 16 at Sun Feb 11 02:13:37 2024.
