 Gaussian 16, Revision A.03,
 Gaussian 16:  ES64L-G16RevA.03 25-Dec-2016

 --------------------------------------
 #P UB3LYP/6-311++G(d,p) nosym opt freq
 --------------------------------------

 -------
 Radical
 -------
 Symbolic Z-matrix:
 Charge = -1 Multiplicity = 2

 SCF Done:  E(UB3LYP) =  -989.940175990     A.U. after   24 cycles
 SCF Done:  E(UB3LYP) =  -989.988967184     A.U. after   18 cycles
 SCF Done:  E(UB3LYP) =  -990.024183102     A.U. after   19 cycles
 SCF Done:  E(UB3LYP) =  -990.031202608     A.U. after   18 cycles
 SCF Done:  E(UB3LYP) =  -990.032065718     A.U. after   17 cycles
 SCF Done:  E(UB3LYP) =  -990.033685252     A.U. after   16 cycles
 SCF Done:  E(UB3LYP) =  -990.033870766     A.U. after   16 cycles
 SCF Done:  E(UB3LYP) =  -990.033955752     A.U. after   14 cycles
 SCF Done:  E(UB3LYP) =  -990.033962904     A.U. after   13 cycles
 SCF Done:  E(UB3LYP) =  -990.033964152     A.U. after   11 cycles
 SCF Done:  E(UB3LYP) =  -990.033964941     A.U. after   10 cycles
 Optimization completed.
    -- Stationary point found.
 Normal termination of Gaussian 16 at Thu Dec 21 20:33:33 2023.

 ----------------------------------------------------------------------
 #P Geom=AllCheck Guess=TCheck SCRF=Check GenChk UB3LYP/6-311++G(d,p) F
 req
 ----------------------------------------------------------------------

 Structure from the checkpoint file:  "204-rad.chk"
 -------
 Radical
 -------
 Charge = -1 Multiplicity = 2

                          Input orientation:
 ---------------------------------------------------------------------
 Center     Atomic      Atomic             Coordinates (Angstroms)
 Number     Number       Type             X           Y           Z
 ---------------------------------------------------------------------
      1          8           0        4.873003   -0.894425    0.019203
      2          6           0        3.651507   -0.264867    0.058572
      3          6           0        3.576986    1.131047    0.125659
      4          6           0        2.339234    1.753921    0.164893
      5          6           0        1.148730    1.009291    0.138607
      6          6           0       -0.146221    1.716601    0.182293
      7          8           0       -0.174559    2.958033    0.241683
      8          6           0       -1.360939    0.880215    0.151671
      9          6           0       -2.659357    1.449232    0.188629
     10          8           0       -2.816465    2.813853    0.254935
     11          6           0       -3.788328    0.639349    0.158475
     12          6           0       -3.686655   -0.755252    0.091111
     13          6           0       -2.442751   -1.359555    0.052903
     14          8           0       -2.381879   -2.711784   -0.012118
     15          6           0       -1.257160   -0.557522    0.082293
     16          6           0        0.023855   -1.207952    0.041614
     17          8           0        0.124683   -2.512840   -0.021599
     18          6           0        1.217711   -0.406959    0.070597
     19          6           0        2.491008   -1.029236    0.031085
     20          8           0        2.642409   -2.381625   -0.034464
     21          1           0        4.683871   -1.842814   -0.024297
     22          1           0        4.498748    1.702178    0.145764
     23          1           0        2.256629    2.832187    0.216879
     24          1           0       -3.763698    2.987633    0.270295
     25          1           0       -4.771939    1.103657    0.188080
     26          1           0       -4.571885   -1.380206    0.067929
     27          1           0       -1.407106   -2.934170   -0.029869
     28          1           0        1.700567   -2.737990   -0.043969
 ---------------------------------------------------------------------

 SCF Done:  E(UB3LYP) =  -990.033964941     A.U. after    1 cycles

 Alpha  occ. eigenvalues --  -19.04716 -19.04088 -19.02730 -19.01268 -18.98294
 Alpha  occ. eigenvalues --  -18.95427 -10.12414 -10.12007 -10.11900 -10.11896
 Alpha  occ. eigenvalues --  -10.11837 -10.11400 -10.06792 -10.06787 -10.06664
 Alpha  occ. eigenvalues --  -10.06586 -10.06459 -10.06038 -10.05739 -10.05583
 Alpha  occ. eigenvalues --   -0.96568  -0.95287  -0.93992  -0.93169  -0.88689
 Alpha  occ. eigenvalues --   -0.88510  -0.74891  -0.73458  -0.67804  -0.63766
 Alpha  occ. eigenvalues --   -0.63010  -0.62389  -0.56291  -0.53811  -0.53378
 Alpha  occ. eigenvalues --   -0.49271  -0.47783  -0.44812  -0.44260  -0.42008
 Alpha  occ. eigenvalues --   -0.41292  -0.38337  -0.37533  -0.36689  -0.35189
 Alpha  occ. eigenvalues --   -0.33960  -0.33278  -0.32161  -0.31461  -0.31295
 Alpha  occ. eigenvalues --   -0.30172  -0.29083  -0.28892  -0.28555  -0.27709
 Alpha  occ. eigenvalues --   -0.27434  -0.26309  -0.26144  -0.24880  -0.24791
 Alpha  occ. eigenvalues --   -0.24662  -0.23479  -0.20909  -0.19695  -0.15872
 Alpha  occ. eigenvalues --   -0.15087  -0.13461  -0.11342  -0.10947  -0.10095
 Alpha  occ. eigenvalues --   -0.02724
 Alpha virt. eigenvalues --    0.07119   0.07141   0.08786   0.08918   0.09443
 Alpha virt. eigenvalues --    0.09874   0.11379   0.12494   0.12660   0.12935
 Alpha virt. eigenvalues --    0.14490   0.14919   0.15348   0.16144   0.16199

  Beta  occ. eigenvalues --  -19.04708 -19.04082 -19.02683 -19.01211 -18.97805
  Beta  occ. eigenvalues --  -18.94955 -10.12456 -10.11931 -10.11866 -10.11764
  Beta  occ. eigenvalues --  -10.11537 -10.11365 -10.06826 -10.06625 -10.06624
  Beta  occ. eigenvalues --  -10.06530 -10.06390 -10.05977 -10.05651 -10.05596
  Beta  occ. eigenvalues --   -0.96504  -0.95274  -0.93782  -0.93073  -0.87897
  Beta  occ. eigenvalues --   -0.87701  -0.74643  -0.73305  -0.67408  -0.63554
  Beta  occ. eigenvalues --   -0.62765  -0.62205  -0.55613  -0.53674  -0.53182
  Beta  occ. eigenvalues --   -0.49137  -0.47572  -0.44687  -0.44194  -0.41866
  Beta  occ. eigenvalues --   -0.41173  -0.38194  -0.37260  -0.36598  -0.35035
  Beta  occ. eigenvalues --   -0.33874  -0.32666  -0.32025  -0.31060  -0.31043
  Beta  occ. eigenvalues --   -0.30069  -0.28845  -0.28266  -0.28214  -0.27629
  Beta  occ. eigenvalues --   -0.26731  -0.26229  -0.25382  -0.24793  -0.24680
  Beta  occ. eigenvalues --   -0.23304  -0.23084  -0.20297  -0.18955  -0.14732
  Beta  occ. eigenvalues --   -0.14156  -0.12992  -0.10896  -0.09990  -0.09353
  Beta virt. eigenvalues --    0.02815   0.07141   0.08227   0.08789   0.09437
  Beta virt. eigenvalues --    0.09874   0.09897   0.11396   0.12664   0.12842
  Beta virt. eigenvalues --    0.12939   0.14517   0.15182   0.15357   0.16208

 Mulliken charges and spin densities:
               1          2
     1  O   -0.289355   0.002935
     2  C   -0.372495   0.014899
     3  C    0.059865   0.058564
     4  C    0.027933  -0.002258
     5  C    0.308068   0.069623
     6  C   -0.573545  -0.000237
     7  O   -0.325505   0.179193
     8  C    0.165332   0.087193
     9  C   -0.206903  -0.014242
    10  O   -0.186559   0.002101
    11  C   -0.200596   0.122615
    12  C   -0.106688   0.036438
    13  C   -0.267076   0.073732
    14  O   -0.380899   0.017719
    15  C    0.621022  -0.049671
    16  C   -0.528417   0.212137
    17  O   -0.544274   0.169398
    18  C    0.496105  -0.051775
    19  C   -0.106062   0.083389
    20  O   -0.476609   0.014302
    21  H    0.277999  -0.000133
    22  H    0.164290  -0.004499
    23  H    0.157437  -0.000282
    24  H    0.234950  -0.000680
    25  H    0.088469  -0.010710
    26  H    0.149355  -0.004068
    27  H    0.384876  -0.002814
    28  H    0.429283  -0.002869
 Sum of Mulliken charges =  -1.00000   1.00000

 Dipole moment (field-independent basis, Debye):
    X=             -2.0618    Y=             -0.0894    Z=             -0.4640  Tot=              2.1153
 Quadrupole moment (field-independent basis, Debye-Ang):
   XX=           -139.5553   YY=           -149.3970   ZZ=           -120.8444
   XY=             -5.9041   XZ=             -0.3396   YZ=             -1.3357

  Exact polarizability: 349.301  -5.569 235.248  -2.195   6.657  96.795
 Approx polarizability: 536.413 -10.742 447.227  -3.425  14.040 155.234

                      1                      2                      3
                      A                      A                      A
 Frequencies --     40.1126                62.3229               100.5327
 Red. masses --      7.9286                 7.7256                 8.4378
 Frc consts  --      0.0075                 0.0177                 0.0502
 IR Inten    --      4.6659                 0.0177                 1.9986

                      4                      5                      6
                      A                      A                      A
 Frequencies --    127.1775               134.5320               188.4524
 Red. masses --      7.5562                10.1706                 7.0127
 Frc consts  --      0.0720                 0.1085                 0.1467
 IR Inten    --      0.3210                 0.0001                 2.0010

                      7                      8                      9
                      A                      A                      A
 Frequencies --    192.8828               232.8053               272.4991
 Red. masses --      3.8406                 1.3627                 4.9333
 Frc consts  --      0.0842                 0.0435                 0.2158
 IR Inten    --      7.6652                62.4320                 7.5413

                     10                     11                     12
                      A                      A                      A
 Frequencies --    274.2167               319.0853               325.3441
 Red. masses --      7.4618                 7.8456                 5.8153
 Frc consts  --      0.3306                 0.4706                 0.3627
 IR Inten    --      7.9797                 1.1612                 0.4565

                     13                     14                     15
                      A                      A                      A
 Frequencies --    347.5939               360.0380               371.2887
 Red. masses --      5.8831                11.6753                 6.0331
 Frc consts  --      0.4188                 0.8917                 0.4900
 IR Inten    --      0.0786                 2.3579                 3.5461

                     16                     17                     18
                      A                      A                      A
 Frequencies --    414.3859               417.3816               452.2339
 Red. masses --      6.6559                 4.5745                 1.3811
 Frc consts  --      0.6734                 0.4695                 0.1664
 IR Inten    --     10.6704                14.9022                89.6867

                     19                     20                     21
                      A                      A                      A
 Frequencies --    455.2389               466.1881               476.9726
 Red. masses --      9.7934                 9.8268                 9.3698
 Frc consts  --      1.1958                 1.2583                 1.2559
 IR Inten    --      4.9871                54.3483                 1.0009

                     22                     23                     24
                      A                      A                      A
 Frequencies --    487.7076               504.7490               526.7241
 Red. masses --      7.8593                 3.3610                 7.1156
 Frc consts  --      1.1014                 0.5045                 1.1631
 IR Inten    --      6.4277                 7.4632                 4.0157

                     25                     26                     27
                      A                      A                      A
 Frequencies --    556.0619               583.5787               588.7766
 Red. masses --      5.0705                 5.6000                 3.6389
 Frc consts  --      0.9237                 1.1237                 0.7432
 IR Inten    --      0.1756                19.3609                18.2446

                     28                     29                     30
                      A                      A                      A
 Frequencies --    633.3523               647.0761               707.6258
 Red. masses --      6.3112                 5.6535                 8.5053
 Frc consts  --      1.4916                 1.3947                 2.5093
 IR Inten    --     26.8991                 4.9201                 0.5291

                     31                     32                     33
                      A                      A                      A
 Frequencies --    708.9426               726.9540               740.8476
 Red. masses --      6.4210                 4.8834                 7.1959
 Frc consts  --      1.9014                 1.5205                 2.3270
 IR Inten    --      4.4448                 0.1238                27.1189

                     34                     35                     36
                      A                      A                      A
 Frequencies --    766.6160               779.6368               807.2938
 Red. masses --      3.0860                 2.1082                 9.0629
 Frc consts  --      1.0686                 0.7550                 3.4800
 IR Inten    --      1.2457                67.7471               124.2604

                     37                     38                     39
                      A                      A                      A
 Frequencies --    819.3867               854.6756               855.8232
 Red. masses --      1.8323                 1.3171                 8.7158
 Frc consts  --      0.7248                 0.5668                 3.7612
 IR Inten    --     16.4775                19.9856                11.9722

                     40                     41                     42
                      A                      A                      A
 Frequencies --    874.6275               890.0769               931.6221
 Red. masses --      1.0687                 1.0458                 6.7011
 Frc consts  --      0.4817                 0.4881                 3.4267
 IR Inten    --    101.7903                19.1996                68.3108

                     43                     44                     45
                      A                      A                      A
 Frequencies --    955.1196               986.2006              1036.8686
 Red. masses --      1.2761                 6.8465                 3.1411
 Frc consts  --      0.6859                 3.9233                 1.9897
 IR Inten    --      0.5358                32.2923                43.9491

                     46                     47                     48
                      A                      A                      A
 Frequencies --   1088.5362              1162.4754              1169.2691
 Red. masses --      2.2170                 1.5774                 1.6808
 Frc consts  --      1.5477                 1.2559                 1.3539
 IR Inten    --     53.2308                 9.0977                27.6094

                     49                     50                     51
                      A                      A                      A
 Frequencies --   1194.6230              1227.3751              1238.5786
 Red. masses --      1.7673                 2.2995                 2.8474
 Frc consts  --      1.4860                 2.0410                 2.5737
 IR Inten    --     60.9657                70.7669                63.2941

                     52                     53                     54
                      A                      A                      A
 Frequencies --   1242.3672              1257.7095              1283.8651
 Red. masses --      3.1580                 4.3094                 3.2284
 Frc consts  --      2.8718                 4.0163                 3.1353
 IR Inten    --      9.8157                41.6676                84.0221

                     55                     56                     57
                      A                      A                      A
 Frequencies --   1317.4192              1335.1194              1340.6414
 Red. masses --      3.5721                 5.6883                 4.3769
 Frc consts  --      3.6528                 5.9741                 4.6349
 IR Inten    --    287.4529                 3.6577               133.0217

                     58                     59                     60
                      A                      A                      A
 Frequencies --   1374.1538              1396.1029              1405.9470
 Red. masses --      3.6534                 3.0082                 3.3128
 Frc consts  --      4.0646                 3.4545                 3.8582
 IR Inten    --    295.5497               176.5730               120.7763

                     61                     62                     63
                      A                      A                      A
 Frequencies --   1436.9890              1489.1051              1493.6705
 Red. masses --      3.5583                 2.7902                 2.7446
 Frc consts  --      4.3292                 3.6453                 3.6078
 IR Inten    --    118.9753               130.7987               236.2018

                     64                     65                     66
                      A                      A                      A
 Frequencies --   1518.1644              1554.4430              1586.5441
 Red. masses --      2.4473                 3.1905                 5.3499
 Frc consts  --      3.3233                 4.5421                 7.9341
 IR Inten    --     86.0409               437.1824               222.8152

                     67                     68                     69
                      A                      A                      A
 Frequencies --   1597.0656              1621.0466              1633.0476
 Red. masses --      5.6255                 4.4373                 3.5413
 Frc consts  --      8.4539                 6.8701                 5.5644
 IR Inten    --    234.7929                23.0840                28.9745

                     70                     71                     72
                      A                      A                      A
 Frequencies --   1675.6191              2970.4548              3095.1542
 Red. masses --      3.6580                 1.0699                 1.0717
 Frc consts  --      6.0512                 5.5621                 6.0493
 IR Inten    --     35.7439               726.3238               124.7872

                     73                     74                     75
                      A                      A                      A
 Frequencies --   3120.8781              3168.6072              3178.9262
 Red. masses --      1.0878                 1.0884                 1.0916
 Frc consts  --      6.2424                 6.4382                 6.4992
 IR Inten    --     34.2705                14.0247                24.7150

                     76                     77                     78
                      A                      A                      A
 Frequencies --   3197.5054              3751.6348              3810.9563
 Red. masses --      1.0920                 1.0650                 1.0654
 Frc consts  --      6.5782                 8.8313                 9.1169
 IR Inten    --     11.2695                69.9439                21.0074

 - Thermochemistry -
 -------------------
 Temperature   298.150 Kelvin.  Pressure   1.00000 Atm.
 Atom     1 has atomic number  8 and mass  15.99491

 Molecular mass:   272.03209 amu.
 Principal axes and moments of inertia in atomic units:
                           1         2         3
     Eigenvalues --  2904.193366657.646039561.83936
           X            0.98794   0.15464   0.00762
           Y           -0.15411   0.98690  -0.04765
           Z           -0.01489   0.04590   0.99884
 This molecule is an asymmetric top.
 Rotational symmetry number  1.
 Warning -- assumption of classical behavior for rotation
           may cause significant error
 Rotational temperatures (Kelvin)      0.02982     0.01301     0.00906
 Rotational constants (GHZ):           0.62143     0.27108     0.18874
 Zero-point vibrational energy     508027.8 (Joules/Mol)
                                  121.42157 (Kcal/Mol)
 Warning -- explicit consideration of  27 degrees of freedom as
           vibrations may cause significant error
 Vibrational temperatures:     57.71    89.67   144.64   182.98   193.56
          (Kelvin)            271.14   277.52   334.95   392.07   394.54
                              459.09   468.10   500.11   518.01   534.20
                              596.21   600.52   650.66   654.99   670.74
                              686.26   701.70   726.22   757.84   800.05
                              839.64   847.12   911.25   931.00  1018.12
                             1020.01  1045.92  1065.91  1102.99  1121.72
                             1161.52  1178.91  1229.69  1231.34  1258.39
                             1280.62  1340.40  1374.20  1418.92  1491.82
                             1566.16  1672.54  1682.32  1718.80  1765.92
                             1782.04  1787.49  1809.56  1847.20  1895.47
                             1920.94  1928.88  1977.10  2008.68  2022.84
                             2067.51  2142.49  2149.06  2184.30  2236.50
                             2282.68  2297.82  2332.32  2349.59  2410.84
                             4273.82  4453.24  4490.25  4558.92  4573.77
                             4600.50  5397.77  5483.12

 Zero-point correction=                           0.193498 (Hartree/Particle)
 Thermal correction to Energy=                    0.208943
 Thermal correction to Enthalpy=                  0.209887
 Thermal correction to Gibbs Free Energy=         0.150646
 Sum of electronic and zero-point Energies=           -989.840467
 Sum of electronic and thermal Energies=              -989.825022
 Sum of electronic and thermal Enthalpies=            -989.824078
 Sum of electronic and thermal Free Energies=         -989.883319

                     E (Thermal)             CV                S
                      KCal/Mol        Cal/Mol-Kelvin    Cal/Mol-Kelvin
 Total                  131.114             62.417            124.684
 Electronic               0.000              0.000              1.377
 Translational            0.889              2.981             42.701
 Rotational               0.889              2.981             33.580
 Vibrational            129.336             56.456             47.025
 Vibration     1          0.594              1.981              5.254
 Vibration     2          0.597              1.972              4.382
 Vibration     3          0.604              1.949              3.444
 Vibration     4          0.611              1.926              2.988
 Vibration     5          0.613              1.919              2.880
 Vibration     6          0.633              1.856              2.243
 Vibration     7          0.635              1.850              2.200
 Vibration     8          0.654              1.791              1.857
 Vibration     9          0.675              1.724              1.580
 Vibration    10          0.677              1.721              1.569
 Vibration    11          0.705              1.637              1.315
 Vibration    12          0.709              1.625              1.283
 Vibration    13          0.725              1.580              1.177
 Vibration    14          0.735              1.555              1.122
 Vibration    15          0.743              1.531              1.074
 Vibration    16          0.778              1.439              0.911
 Vibration    17          0.780              1.432              0.901
 Vibration    18          0.811              1.356              0.789
 Vibration    19          0.814              1.349              0.780
 Vibration    20          0.824              1.325              0.748
 Vibration    21          0.834              1.301              0.718
 Vibration    22          0.844              1.277              0.690
 Vibration    23          0.860              1.239              0.646
 Vibration    24          0.882              1.191              0.595
 Vibration    25          0.912              1.126              0.532
 Vibration    26          0.940              1.067              0.479
 Vibration    27          0.946              1.056              0.469

 Optimization completed.
    -- Stationary point found.
 Normal termination of Gaussian 16 at Thu Dec 21 22:04:48 2023.
