 Q-Chem 5.4, Q-Chem, Inc., Pleasanton, CA (2021)
 Q-Chem 5.4.0 for Intel X86 EM64T Linux

User input:
--------------------------------------------------------------
$molecule
-1 2
C                 -0.6391460000      2.6799880000     -0.9636810000
C                 -1.7135230000      2.0640820000     -0.3717310000
C                 -1.5878360000      0.7510950000      0.1574610000
C                  0.6255520000      2.0266890000     -1.0649210000
C                  0.7510740000      0.6956470000     -0.5278170000
C                 -0.3842370000      0.0912560000      0.0776080000
C                  1.7446550000      2.6280480000     -1.6641370000
C                  2.9709790000      1.9703480000     -1.7517940000
C                  3.0951650000      0.6374910000     -1.2135550000
C                  1.9978560000      0.0410180000     -0.6230120000
C                  4.1133170000      2.6100300000     -2.3744690000
C                  5.3387560000      1.8475160000     -2.4165690000
C                  5.4784810000      0.5749790000     -1.9091610000
C                  4.3867060000     -0.1100330000     -1.2823120000
O                  4.1135700000      3.7807120000     -2.8804260000
O                  4.4839170000     -1.2669340000     -0.8117090000
O                  6.3716180000      2.4997940000     -3.0114680000
H                 -0.7360460000      3.6833490000     -1.3677920000
H                 -2.6668270000      2.5792350000     -0.3051900000
H                 -2.4440980000      0.2741150000      0.6231800000
H                 -0.2811150000     -0.9123230000      0.4799530000
H                  1.6719820000      3.6295350000     -2.0747900000
H                  2.1213760000     -0.9618170000     -0.2271330000
H                  6.4307680000      0.0608280000     -1.9757260000
H                  5.9593560000      3.3576220000     -3.2570690000
$end

$rem
BASIS  =  6-311++G(d,p)
GUI  =  2
JOB_TYPE  =  SP
METHOD  =  B3LYP
SCF_CONVERGENCE  = 8
SOLVENT_METHOD = sm12
$end

$smx
solvent dimethylformamide
charges CM5
$end

--------------------------------------------------------------

             Standard Nuclear Orientation (Angstroms)
    I     Atom           X                Y                Z
 ----------------------------------------------------------------
    1      C      -0.6391460000     2.6799880000    -0.9636810000
    2      C      -1.7135230000     2.0640820000    -0.3717310000
    3      C      -1.5878360000     0.7510950000     0.1574610000
    4      C       0.6255520000     2.0266890000    -1.0649210000
    5      C       0.7510740000     0.6956470000    -0.5278170000
    6      C      -0.3842370000     0.0912560000     0.0776080000
    7      C       1.7446550000     2.6280480000    -1.6641370000
    8      C       2.9709790000     1.9703480000    -1.7517940000
    9      C       3.0951650000     0.6374910000    -1.2135550000
   10      C       1.9978560000     0.0410180000    -0.6230120000
   11      C       4.1133170000     2.6100300000    -2.3744690000
   12      C       5.3387560000     1.8475160000    -2.4165690000
   13      C       5.4784810000     0.5749790000    -1.9091610000
   14      C       4.3867060000    -0.1100330000    -1.2823120000
   15      O       4.1135700000     3.7807120000    -2.8804260000
   16      O       4.4839170000    -1.2669340000    -0.8117090000
   17      O       6.3716180000     2.4997940000    -3.0114680000
   18      H      -0.7360460000     3.6833490000    -1.3677920000
   19      H      -2.6668270000     2.5792350000    -0.3051900000
   20      H      -2.4440980000     0.2741150000     0.6231800000
   21      H      -0.2811150000    -0.9123230000     0.4799530000
   22      H       1.6719820000     3.6295350000    -2.0747900000
   23      H       2.1213760000    -0.9618170000    -0.2271330000
   24      H       6.4307680000     0.0608280000    -1.9757260000
   25      H       5.9593560000     3.3576220000    -3.2570690000
 ----------------------------------------------------------------

   19    -764.2682427421      4.80e-09  Convergence criterion met
 Total energy in the final basis set =     -764.3583972187

                    Orbital Energies (a.u.)
 --------------------------------------------------------------

 Alpha MOs
 -- Occupied --
-19.1504 -19.0882 -19.0773 -10.2327 -10.2326 -10.2236 -10.1952 -10.1943
-10.1875 -10.1871 -10.1864 -10.1861 -10.1856 -10.1850 -10.1834 -10.1819
-10.1624  -1.0706  -1.0039  -0.9982  -0.8863  -0.8426  -0.7985  -0.7871
 -0.7464  -0.7374  -0.6792  -0.6508  -0.6237  -0.6087  -0.5824  -0.5481
 -0.5381  -0.5103  -0.4939  -0.4721  -0.4666  -0.4514  -0.4404  -0.4396
 -0.4279  -0.4151  -0.4119  -0.4070  -0.4050  -0.3839  -0.3808  -0.3696
 -0.3642  -0.3527  -0.3396  -0.3269  -0.3012  -0.2683  -0.2614  -0.2433
 -0.2424  -0.2347  -0.1525

 Beta MOs
 -- Occupied --
-19.1499 -19.0812 -19.0725 -10.2319 -10.2315 -10.2208 -10.1953 -10.1936
-10.1878 -10.1870 -10.1863 -10.1861 -10.1850 -10.1844 -10.1837 -10.1807
-10.1613  -1.0683  -0.9957  -0.9864  -0.8852  -0.8403  -0.7949  -0.7859
 -0.7450  -0.7355  -0.6704  -0.6494  -0.6211  -0.6083  -0.5798  -0.5461
 -0.5369  -0.5093  -0.4912  -0.4706  -0.4655  -0.4505  -0.4395  -0.4275
 -0.4269  -0.4120  -0.4068  -0.4057  -0.4009  -0.3795  -0.3702  -0.3677
 -0.3513  -0.3487  -0.3388  -0.3151  -0.2964  -0.2551  -0.2532  -0.2377
 -0.2331  -0.2273

          Ground-State Mulliken Net Atomic Charges

     Atom                 Charge (a.u.)    Spin (a.u.)
  --------------------------------------------------------
      1 C                     0.723896       0.039047
      2 C                     1.287104      -0.015549
      3 C                     1.322551       0.051110
      4 C                     0.283122      -0.015024
      5 C                     0.025661       0.057038
      6 C                     0.706116      -0.030689
      7 C                    -0.444149       0.141784
      8 C                    -0.778765      -0.024911
      9 C                    -1.212372       0.055460
     10 C                    -0.633345      -0.032918
     11 C                    -1.631802       0.145045
     12 C                    -0.311276       0.092069
     13 C                     0.232188       0.078980
     14 C                    -1.641559       0.028956
     15 O                    -0.366944       0.259928
     16 O                    -0.360322       0.174237
     17 O                    -0.175461       0.018233
     18 H                     0.307223      -0.001560
     19 H                     0.358347       0.000736
     20 H                     0.355433      -0.003453
     21 H                     0.305338       0.001982
     22 H                     0.108843      -0.008658
     23 H                     0.078575       0.000554
     24 H                     0.163916      -0.008844
     25 H                     0.297683      -0.003554
  --------------------------------------------------------
  Sum of atomic charges =    -1.000000

                    Cartesian Multipole Moments
 -----------------------------------------------------------------
    Charge (ESU x 10^10)
                -4.8032
    Dipole Moment (Debye)
         X     -21.0695      Y      -5.3067      Z       8.6801
       Tot      23.3972
    Quadrupole Moments (Debye-Ang)
        XX    -198.2957     XY     -21.6899     YY    -130.0446
        XZ      37.5339     YZ      17.2291     ZZ    -124.1967

 Total job time:  636.09s(wall), 4578.28s(cpu)
        *  Thank you very much for using Q-Chem.  Have a nice day.  *
