 Gaussian 16, Revision A.03,
 Gaussian 16:  ES64L-G16RevA.03 25-Dec-2016

 --------------------------------------
 #P UB3LYP/6-311++G(d,p) nosym opt freq
 --------------------------------------

 --------
 Oxidized
 --------
 Symbolic Z-matrix:
 Charge =  0 Multiplicity = 1

 SCF Done:  E(UB3LYP) =  -1051.43900310     A.U. after   17 cycles
 SCF Done:  E(UB3LYP) =  -1051.44699612     A.U. after   16 cycles
 SCF Done:  E(UB3LYP) =  -1051.44513134     A.U. after   17 cycles
 SCF Done:  E(UB3LYP) =  -1051.44880590     A.U. after   15 cycles
 SCF Done:  E(UB3LYP) =  -1051.45066011     A.U. after   16 cycles
 SCF Done:  E(UB3LYP) =  -1051.45108182     A.U. after   14 cycles
 SCF Done:  E(UB3LYP) =  -1051.45151490     A.U. after   15 cycles
 SCF Done:  E(UB3LYP) =  -1051.45142253     A.U. after   14 cycles
 SCF Done:  E(UB3LYP) =  -1051.45161083     A.U. after   13 cycles
 SCF Done:  E(UB3LYP) =  -1051.45171190     A.U. after   13 cycles
 SCF Done:  E(UB3LYP) =  -1051.45171478     A.U. after   12 cycles
 SCF Done:  E(UB3LYP) =  -1051.45171653     A.U. after   11 cycles
 SCF Done:  E(UB3LYP) =  -1051.45171762     A.U. after   11 cycles
 SCF Done:  E(UB3LYP) =  -1051.45171835     A.U. after   11 cycles
 SCF Done:  E(UB3LYP) =  -1051.45171870     A.U. after   11 cycles
 SCF Done:  E(UB3LYP) =  -1051.45171903     A.U. after   10 cycles
 SCF Done:  E(UB3LYP) =  -1051.45171915     A.U. after   10 cycles
 SCF Done:  E(UB3LYP) =  -1051.45171922     A.U. after   11 cycles
 SCF Done:  E(UB3LYP) =  -1051.45171924     A.U. after   10 cycles
 Optimization completed.
    -- Stationary point found.
 Normal termination of Gaussian 16 at Tue Dec 26 21:54:26 2023.

 ----------------------------------------------------------------------
 #P Geom=AllCheck Guess=TCheck SCRF=Check GenChk UB3LYP/6-311++G(d,p) F
 req
 ----------------------------------------------------------------------

 Structure from the checkpoint file:  "278.chk"
 --------
 Oxidized
 --------
 Charge =  0 Multiplicity = 1

                          Input orientation:
 ---------------------------------------------------------------------
 Center     Atomic      Atomic             Coordinates (Angstroms)
 Number     Number       Type             X           Y           Z
 ---------------------------------------------------------------------
      1          6           0        0.304808    3.878551    0.477361
      2          6           0       -0.869524    3.472134    1.102307
      3          6           0       -1.267120    2.134125    1.045484
      4          6           0        1.091367    2.944788   -0.202550
      5          6           0        0.693074    1.603633   -0.259023
      6          6           0       -0.489938    1.202107    0.365006
      7          6           0        2.336168    3.396596   -0.886923
      8          6           0        3.214488    2.348380   -1.500594
      9          6           0        2.817816    1.043803   -1.578602
     10          6           0        1.527520    0.601884   -0.980546
     11          8           0        2.613124    4.581960   -0.952007
     12          8           0        1.171369   -0.565781   -1.056691
     13          1           0        0.627106    4.911989    0.502225
     14          1           0       -1.477990    4.196506    1.631668
     15          1           0       -2.184394    1.820731    1.530941
     16          1           0       -0.780472    0.160661    0.304947
     17         16           0        4.720782    2.815520   -2.307046
     18          6           0        3.634102   -0.017700   -2.255739
     19          1           0        3.586882    0.088539   -3.345552
     20          1           0        3.255187   -1.004970   -1.998439
     21          1           0        4.687129    0.068332   -1.974977
     22          6           0        5.410073    4.279436   -1.407392
     23          6           0        6.882330    4.408051   -1.789937
     24          1           0        5.292967    4.108555   -0.337691
     25          1           0        4.839647    5.161431   -1.682192
     26          1           0        7.459553    3.532072   -1.485318
     27          1           0        7.308101    5.286000   -1.296027
     28          1           0        7.007464    4.542236   -2.867705
 ---------------------------------------------------------------------

 SCF Done:  E(UB3LYP) =  -1051.45171924     A.U. after    1 cycles

 Alpha  occ. eigenvalues --  -88.86543 -19.13311 -19.12545 -10.28734 -10.27586
 Alpha  occ. eigenvalues --  -10.23636 -10.21479 -10.20925 -10.20903 -10.20762
 Alpha  occ. eigenvalues --  -10.20235 -10.20179 -10.20031 -10.19873 -10.17805
 Alpha  occ. eigenvalues --  -10.17260  -7.95149  -5.91532  -5.91110  -5.90587
 Alpha  occ. eigenvalues --   -1.06895  -1.05829  -0.89272  -0.86087  -0.81072
 Alpha  occ. eigenvalues --   -0.78736  -0.77985  -0.74432  -0.70599  -0.68091
 Alpha  occ. eigenvalues --   -0.64407  -0.62370  -0.60574  -0.58474  -0.54933
 Alpha  occ. eigenvalues --   -0.52299  -0.49962  -0.47944  -0.47207  -0.46313
 Alpha  occ. eigenvalues --   -0.45993  -0.45483  -0.45331  -0.44342  -0.42618
 Alpha  occ. eigenvalues --   -0.41573  -0.41060  -0.39900  -0.39734  -0.38878
 Alpha  occ. eigenvalues --   -0.37913  -0.37723  -0.37202  -0.36904  -0.33739
 Alpha  occ. eigenvalues --   -0.30729  -0.28549  -0.28465  -0.27964  -0.27078
 Alpha  occ. eigenvalues --   -0.23728
 Alpha virt. eigenvalues --   -0.12223  -0.05744  -0.03550  -0.01295  -0.00784
 Alpha virt. eigenvalues --    0.00281   0.01101   0.01502   0.01991   0.02103
 Alpha virt. eigenvalues --    0.03003   0.03248   0.03448   0.03998   0.04402

  Beta  occ. eigenvalues --  -88.86543 -19.13311 -19.12545 -10.28734 -10.27586
  Beta  occ. eigenvalues --  -10.23636 -10.21479 -10.20925 -10.20903 -10.20762
  Beta  occ. eigenvalues --  -10.20235 -10.20179 -10.20031 -10.19873 -10.17805
  Beta  occ. eigenvalues --  -10.17260  -7.95149  -5.91532  -5.91110  -5.90587
  Beta  occ. eigenvalues --   -1.06895  -1.05829  -0.89272  -0.86087  -0.81072
  Beta  occ. eigenvalues --   -0.78736  -0.77985  -0.74432  -0.70599  -0.68091
  Beta  occ. eigenvalues --   -0.64407  -0.62370  -0.60574  -0.58474  -0.54933
  Beta  occ. eigenvalues --   -0.52299  -0.49962  -0.47944  -0.47207  -0.46313
  Beta  occ. eigenvalues --   -0.45993  -0.45483  -0.45331  -0.44342  -0.42618
  Beta  occ. eigenvalues --   -0.41573  -0.41060  -0.39900  -0.39734  -0.38878
  Beta  occ. eigenvalues --   -0.37913  -0.37723  -0.37202  -0.36904  -0.33739
  Beta  occ. eigenvalues --   -0.30729  -0.28549  -0.28465  -0.27964  -0.27078
  Beta  occ. eigenvalues --   -0.23728
  Beta virt. eigenvalues --   -0.12223  -0.05744  -0.03550  -0.01295  -0.00784
  Beta virt. eigenvalues --    0.00281   0.01101   0.01502   0.01991   0.02103
  Beta virt. eigenvalues --    0.03003   0.03248   0.03448   0.03998   0.04402

 Mulliken charges and spin densities:
               1          2
     1  C    0.082331   0.000000
     2  C   -0.398345   0.000000
     3  C   -0.372019  -0.000000
     4  C    0.205952  -0.000000
     5  C    0.727274  -0.000000
     6  C    0.103740   0.000000
     7  C   -1.009378   0.000000
     8  C    0.962341  -0.000000
     9  C    0.913017  -0.000000
    10  C   -1.182455   0.000000
    11  O   -0.188294  -0.000000
    12  O   -0.214438  -0.000000
    13  H    0.194802   0.000000
    14  H    0.174305  -0.000000
    15  H    0.177541  -0.000000
    16  H    0.187449   0.000000
    17  S   -0.744947  -0.000000
    18  C   -0.133848   0.000000
    19  H    0.193141  -0.000000
    20  H    0.198087  -0.000000
    21  H    0.158434   0.000000
    22  C   -0.243534   0.000000
    23  C   -0.691063   0.000000
    24  H    0.213504  -0.000000
    25  H    0.232079  -0.000000
    26  H    0.154165   0.000000
    27  H    0.143684   0.000000
    28  H    0.156473  -0.000000
 Sum of Mulliken charges =  -0.00000   0.00000

 Dipole moment (field-independent basis, Debye):
    X=              0.2363    Y=              1.5451    Z=              1.5627  Tot=              2.2102
 Quadrupole moment (field-independent basis, Debye-Ang):
   XX=            -86.2190   YY=           -101.6750   ZZ=           -102.4977
   XY=              3.3880   XZ=             -2.6644   YZ=              4.3629

  Exact polarizability: 225.834  33.396 208.247 -56.255  11.601 135.203
 Approx polarizability: 316.356  71.825 401.180 -71.184  14.841 210.716

                      1                      2                      3
                      A                      A                      A
 Frequencies --     31.2405                39.9374                62.8624
 Red. masses --      5.1046                 4.3658                 2.1014
 Frc consts  --      0.0029                 0.0041                 0.0049
 IR Inten    --      2.7558                 2.2214                 3.7567

                      4                      5                      6
                      A                      A                      A
 Frequencies --     77.3416               109.7285               118.3031
 Red. masses --      3.1200                 2.6616                 1.8831
 Frc consts  --      0.0110                 0.0189                 0.0155
 IR Inten    --      1.2394                 0.8302                 0.3330

                      7                      8                      9
                      A                      A                      A
 Frequencies --    142.4159               165.3923               228.8025
 Red. masses --      2.5572                 5.9536                 3.0545
 Frc consts  --      0.0306                 0.0960                 0.0942
 IR Inten    --      0.3775                 0.8496                 0.2299

                     10                     11                     12
                      A                      A                      A
 Frequencies --    244.8679               251.7629               278.2828
 Red. masses --      1.4358                 3.5265                 4.9452
 Frc consts  --      0.0507                 0.1317                 0.2256
 IR Inten    --      0.8433                 1.1052                 0.9946

                     13                     14                     15
                      A                      A                      A
 Frequencies --    280.1564               351.3657               385.1295
 Red. masses --      4.7809                 3.8553                 6.8544
 Frc consts  --      0.2211                 0.2804                 0.5990
 IR Inten    --      0.0247                 0.7834                 5.3770

                     16                     17                     18
                      A                      A                      A
 Frequencies --    399.7013               416.5270               431.0522
 Red. masses --      7.1631                 6.2560                 3.9587
 Frc consts  --      0.6743                 0.6395                 0.4334
 IR Inten    --      6.5908                15.1310                 2.3206

                     19                     20                     21
                      A                      A                      A
 Frequencies --    436.5780               493.7719               529.2723
 Red. masses --      5.1210                 9.4756                 4.9566
 Frc consts  --      0.5751                 1.3612                 0.8181
 IR Inten    --      1.2392                 1.1552                 0.1904

                     22                     23                     24
                      A                      A                      A
 Frequencies --    581.8767               653.0526               665.9704
 Red. masses --      6.6442                 4.7264                 6.4772
 Frc consts  --      1.3254                 1.1876                 1.6926
 IR Inten    --      4.3561                 5.6583                12.0162

                     25                     26                     27
                      A                      A                      A
 Frequencies --    697.4349               706.9510               720.6955
 Red. masses --      4.5930                 5.7513                 2.7958
 Frc consts  --      1.3163                 1.6935                 0.8556
 IR Inten    --      2.7647                 0.1399                59.9944

                     28                     29                     30
                      A                      A                      A
 Frequencies --    788.1943               791.2358               803.2872
 Red. masses --      1.1485                 4.2421                 1.8109
 Frc consts  --      0.4204                 1.5647                 0.6885
 IR Inten    --      2.7158                 4.5094                18.3322

                     31                     32                     33
                      A                      A                      A
 Frequencies --    817.7432               854.8315               914.5090
 Red. masses --      4.8887                 6.3631                 1.3665
 Frc consts  --      1.9261                 2.7396                 0.6733
 IR Inten    --     26.7996                66.1179                 0.2281

                     34                     35                     36
                      A                      A                      A
 Frequencies --    965.3495               983.7135               999.6049
 Red. masses --      5.6468                 2.0122                 1.3780
 Frc consts  --      3.1005                 1.1472                 0.8113
 IR Inten    --     36.4528                10.9039                 1.6676

                     37                     38                     39
                      A                      A                      A
 Frequencies --   1016.3150              1040.0271              1048.2920
 Red. masses --      1.3217                 1.5949                 1.2236
 Frc consts  --      0.8044                 1.0164                 0.7922
 IR Inten    --      0.0344                12.1427                10.1152

                     40                     41                     42
                      A                      A                      A
 Frequencies --   1050.8716              1055.5198              1071.7755
 Red. masses --      2.3467                 1.8231                 2.0060
 Frc consts  --      1.5269                 1.1967                 1.3577
 IR Inten    --      4.7710                26.3085                 7.4510

                     43                     44                     45
                      A                      A                      A
 Frequencies --   1114.5375              1123.6153              1183.0379
 Red. masses --      2.2656                 3.1019                 1.1400
 Frc consts  --      1.6582                 2.3073                 0.9401
 IR Inten    --      4.6493                17.7187                 6.6823

                     46                     47                     48
                      A                      A                      A
 Frequencies --   1199.1452              1261.1548              1265.7523
 Red. masses --      2.5351                 1.3025                 2.1785
 Frc consts  --      2.1478                 1.2205                 2.0564
 IR Inten    --     40.1194                 9.5730                60.5720

                     49                     50                     51
                      A                      A                      A
 Frequencies --   1289.4683              1293.2069              1318.7001
 Red. masses --      1.8250                 1.9356                 3.1434
 Frc consts  --      1.7879                 1.9072                 3.2207
 IR Inten    --    247.9738               118.3426               147.1535

                     52                     53                     54
                      A                      A                      A
 Frequencies --   1361.2210              1405.7616              1414.9760
 Red. masses --      7.4620                 1.2394                 1.2209
 Frc consts  --      8.1464                 1.4431                 1.4403
 IR Inten    --     14.6203                16.6902                 5.7351

                     55                     56                     57
                      A                      A                      A
 Frequencies --   1471.4384              1481.9184              1483.0121
 Red. masses --      1.1031                 2.0924                 1.0894
 Frc consts  --      1.4071                 2.7073                 1.4117
 IR Inten    --     22.8820                 2.1058                11.7382

                     58                     59                     60
                      A                      A                      A
 Frequencies --   1490.0415              1492.3036              1502.0649
 Red. masses --      1.1216                 1.0410                 1.0493
 Frc consts  --      1.4672                 1.3659                 1.3949
 IR Inten    --     12.7063                11.8984                 4.0720

                     61                     62                     63
                      A                      A                      A
 Frequencies --   1508.4355              1579.2711              1624.5977
 Red. masses --      2.5789                 6.9762                 7.3851
 Frc consts  --      3.4573                10.2513                11.4841
 IR Inten    --      8.6656               119.3412                10.7054

                     64                     65                     66
                      A                      A                      A
 Frequencies --   1628.0193              1698.4917              1717.8904
 Red. masses --      5.9150                12.2084                12.4826
 Frc consts  --      9.2369                20.7509                21.7043
 IR Inten    --     72.1160               192.3382               240.7856

                     67                     68                     69
                      A                      A                      A
 Frequencies --   3021.9686              3029.3644              3072.5919
 Red. masses --      1.0441                 1.0348                 1.0931
 Frc consts  --      5.6181                 5.5951                 6.0802
 IR Inten    --      7.7863                31.0582                 8.1202

                     70                     71                     72
                      A                      A                      A
 Frequencies --   3081.1306              3095.8182              3097.9606
 Red. masses --      1.0783                 1.0867                 1.1011
 Frc consts  --      6.0311                 6.1366                 6.2262
 IR Inten    --      0.5408                25.2803                15.4181

                     73                     74                     75
                      A                      A                      A
 Frequencies --   3140.7669              3160.1820              3170.2302
 Red. masses --      1.0982                 1.1041                 1.0870
 Frc consts  --      6.3828                 6.4968                 6.4366
 IR Inten    --      3.9117                 7.3144                 3.5454

                     76                     77                     78
                      A                      A                      A
 Frequencies --   3184.7143              3200.9693              3203.4457
 Red. masses --      1.0920                 1.0925                 1.0948
 Frc consts  --      6.5252                 6.5951                 6.6193
 IR Inten    --     10.7382                 0.4290                10.3839

 - Thermochemistry -
 -------------------
 Temperature   298.150 Kelvin.  Pressure   1.00000 Atm.
 Atom     1 has atomic number  6 and mass  12.00000

 Molecular mass:   232.05580 amu.
 Principal axes and moments of inertia in atomic units:
                           1         2         3
     Eigenvalues --  2120.289595451.521577407.75001
           X            0.89861  -0.11216   0.42416
           Y            0.23738   0.93733  -0.25506
           Z           -0.36897   0.32989   0.86893
 This molecule is an asymmetric top.
 Rotational symmetry number  1.
 Warning -- assumption of classical behavior for rotation
           may cause significant error
 Rotational temperatures (Kelvin)      0.04085     0.01589     0.01169
 Rotational constants (GHZ):           0.85118     0.33105     0.24363
 Zero-point vibrational energy     568638.6 (Joules/Mol)
                                  135.90788 (Kcal/Mol)
 Warning -- explicit consideration of  22 degrees of freedom as
           vibrations may cause significant error
 Vibrational temperatures:     44.95    57.46    90.44   111.28   157.87
          (Kelvin)            170.21   204.90   237.96   329.20   352.31
                              362.23   400.39   403.08   505.54   554.12
                              575.08   599.29   620.19   628.14   710.43
                              761.50   837.19   939.60   958.18  1003.45
                             1017.14  1036.92  1134.04  1138.41  1155.75
                             1176.55  1229.91  1315.77  1388.92  1415.34
                             1438.21  1462.25  1496.37  1508.26  1511.97
                             1518.66  1542.05  1603.57  1616.63  1702.13
                             1725.30  1814.52  1821.14  1855.26  1860.64
                             1897.32  1958.49  2022.58  2035.83  2117.07
                             2132.15  2133.72  2143.84  2147.09  2161.14
                             2170.30  2272.22  2337.43  2342.36  2443.75
                             2471.66  4347.94  4358.58  4420.77  4433.06
                             4454.19  4457.27  4518.86  4546.80  4561.25
                             4582.09  4605.48  4609.04

 Zero-point correction=                           0.216583 (Hartree/Particle)
 Thermal correction to Energy=                    0.231790
 Thermal correction to Enthalpy=                  0.232734
 Thermal correction to Gibbs Free Energy=         0.172872
 Sum of electronic and zero-point Energies=          -1051.235136
 Sum of electronic and thermal Energies=             -1051.219929
 Sum of electronic and thermal Enthalpies=           -1051.218985
 Sum of electronic and thermal Free Energies=        -1051.278848

                     E (Thermal)             CV                S
                      KCal/Mol        Cal/Mol-Kelvin    Cal/Mol-Kelvin
 Total                  145.450             56.467            125.991
 Electronic               0.000              0.000              0.000
 Translational            0.889              2.981             42.227
 Rotational               0.889              2.981             32.815
 Vibrational            143.673             50.505             50.949
 Vibration     1          0.594              1.983              5.749
 Vibration     2          0.594              1.981              5.262
 Vibration     3          0.597              1.972              4.365
 Vibration     4          0.599              1.964              3.957
 Vibration     5          0.606              1.941              3.274
 Vibration     6          0.608              1.934              3.128
 Vibration     7          0.616              1.911              2.771
 Vibration     8          0.624              1.885              2.487
 Vibration     9          0.651              1.797              1.888
 Vibration    10          0.660              1.771              1.767
 Vibration    11          0.664              1.760              1.718
 Vibration    12          0.679              1.714              1.544
 Vibration    13          0.680              1.710              1.533
 Vibration    14          0.728              1.572              1.160
 Vibration    15          0.754              1.502              1.019
 Vibration    16          0.766              1.471              0.964
 Vibration    17          0.780              1.434              0.904
 Vibration    18          0.792              1.403              0.855
 Vibration    19          0.797              1.390              0.837
 Vibration    20          0.849              1.264              0.674
 Vibration    21          0.884              1.185              0.589
 Vibration    22          0.939              1.071              0.482

 Optimization completed.
    -- Stationary point found.
 Normal termination of Gaussian 16 at Tue Dec 26 22:35:33 2023.
