 Q-Chem 5.4, Q-Chem, Inc., Pleasanton, CA (2021)
 Q-Chem 5.4.0 for Intel X86 EM64T Linux

User input:
--------------------------------------------------------------
$molecule
-2 1
C                  2.6431500000      1.4343070000     -0.2136500000
O                  2.4758130000      0.2273130000      0.5132640000
C                  1.2216400000     -0.3835270000      0.3340480000
C                  1.2337650000     -1.7096070000     -0.0930390000
C                  0.0434440000     -2.4949140000     -0.2445970000
O                  0.0490270000     -3.7283370000     -0.6407860000
C                 -1.1553460000     -1.7708270000      0.0638410000
C                 -1.1551230000     -0.4444060000      0.4900970000
O                 -2.4047380000      0.1021330000      0.8337980000
C                 -2.7270770000      1.2968280000      0.1395190000
C                  0.0320650000      0.3432620000      0.6894980000
O                  0.0317230000      1.5576350000      1.1580390000
H                  3.6335430000      1.8310000000      0.0466500000
H                  2.6176750000      1.2429390000     -1.3009510000
H                  1.8616210000      2.1513230000      0.0551520000
H                  2.1914960000     -2.1728400000     -0.3202060000
H                 -2.1096860000     -2.2830480000     -0.0376610000
H                 -2.8353410000      1.1035810000     -0.9423180000
H                 -3.6933240000      1.6437860000      0.5294270000
H                 -1.9543260000      2.0533980000      0.3057750000
$end

$rem
BASIS  =  6-311++G(d,p)
GUI  =  2
JOB_TYPE  =  SP
METHOD  =  B3LYP
SCF_CONVERGENCE  = 8
SOLVENT_METHOD = sm12
$end

$smx
solvent dimethylformamide
charges CM5
$end

--------------------------------------------------------------

             Standard Nuclear Orientation (Angstroms)
    I     Atom           X                Y                Z
 ----------------------------------------------------------------
    1      C       2.6431500000     1.4343070000    -0.2136500000
    2      O       2.4758130000     0.2273130000     0.5132640000
    3      C       1.2216400000    -0.3835270000     0.3340480000
    4      C       1.2337650000    -1.7096070000    -0.0930390000
    5      C       0.0434440000    -2.4949140000    -0.2445970000
    6      O       0.0490270000    -3.7283370000    -0.6407860000
    7      C      -1.1553460000    -1.7708270000     0.0638410000
    8      C      -1.1551230000    -0.4444060000     0.4900970000
    9      O      -2.4047380000     0.1021330000     0.8337980000
   10      C      -2.7270770000     1.2968280000     0.1395190000
   11      C       0.0320650000     0.3432620000     0.6894980000
   12      O       0.0317230000     1.5576350000     1.1580390000
   13      H       3.6335430000     1.8310000000     0.0466500000
   14      H       2.6176750000     1.2429390000    -1.3009510000
   15      H       1.8616210000     2.1513230000     0.0551520000
   16      H       2.1914960000    -2.1728400000    -0.3202060000
   17      H      -2.1096860000    -2.2830480000    -0.0376610000
   18      H      -2.8353410000     1.1035810000    -0.9423180000
   19      H      -3.6933240000     1.6437860000     0.5294270000
   20      H      -1.9543260000     2.0533980000     0.3057750000
 ----------------------------------------------------------------

   18    -610.6390232070      5.97e-09  Convergence criterion met
 Total energy in the final basis set =     -610.9301069296

                    Orbital Energies (a.u.)
 --------------------------------------------------------------

 Alpha MOs
 -- Occupied --
-19.1242 -19.1242 -19.0182 -19.0146 -10.2068 -10.2067 -10.1874 -10.1873
-10.1813 -10.1747 -10.1306 -10.1306  -1.0322  -1.0301  -0.9285  -0.9230
 -0.7877  -0.7272  -0.6877  -0.6570  -0.6458  -0.5661  -0.5467  -0.4815
 -0.4767  -0.4500  -0.4475  -0.4413  -0.4393  -0.4307  -0.4050  -0.3644
 -0.3567  -0.3560  -0.3375  -0.3336  -0.3327  -0.3130  -0.2794  -0.2643
 -0.2213  -0.2102  -0.1949  -0.1891  -0.1207

          Ground-State Mulliken Net Atomic Charges

     Atom                 Charge (a.u.)
  ----------------------------------------
      1 C                     0.244386
      2 O                    -0.028469
      3 C                    -0.008262
      4 C                    -0.657072
      5 C                    -1.870029
      6 O                    -0.445782
      7 C                    -0.647052
      8 C                     0.000760
      9 O                    -0.028796
     10 C                     0.244296
     11 C                     0.769639
     12 O                    -0.391496
     13 H                     0.298600
     14 H                     0.071362
     15 H                     0.094862
     16 H                    -0.056630
     17 H                    -0.055107
     18 H                     0.071417
     19 H                     0.298510
     20 H                     0.094864
  ----------------------------------------
  Sum of atomic charges =    -2.000000

                    Cartesian Multipole Moments
 -----------------------------------------------------------------
    Charge (ESU x 10^10)
                -9.6064
    Dipole Moment (Debye)
         X      -0.4832      Y      12.1134      Z      -3.2094
       Tot      12.5406
    Quadrupole Moments (Debye-Ang)
        XX     -96.8180     XY       0.1470     YY    -143.1178
        XZ       0.8616     YZ     -15.0433     ZZ     -89.8576

 Total job time:  298.55s(wall), 2209.32s(cpu)
        *  Thank you very much for using Q-Chem.  Have a nice day.  *
