 Q-Chem 5.4, Q-Chem, Inc., Pleasanton, CA (2021)
 Q-Chem 5.4.0 for Intel X86 EM64T Linux

User input:
--------------------------------------------------------------
$molecule
-2 1
C                  5.5661100000     -4.6083660000     -1.0144630000
C                  6.4662060000     -4.1044300000     -1.9698420000
C                  6.1640090000     -2.8146690000     -2.5734480000
C                  4.3843180000     -3.9520660000     -0.5846090000
C                  4.1207280000     -2.6411600000     -1.2282930000
C                  5.0103570000     -2.1414350000     -2.1747300000
C                  3.4539560000     -4.4767960000      0.4111320000
C                  2.3018370000     -3.6295270000      0.6886670000
C                  2.0574020000     -2.3577640000      0.0542930000
C                  2.9565030000     -1.8140760000     -0.9288390000
C                  1.3567880000     -4.0835000000      1.6454890000
C                  0.2343200000     -3.3550500000      1.9778040000
C                 -0.0031760000     -2.0990430000      1.3497110000
C                  0.8936340000     -1.6285260000      0.4161320000
C                  7.6737850000     -4.7521990000     -2.3940530000
C                  8.5005980000     -4.2019730000     -3.3393800000
C                  8.1874820000     -2.9446000000     -3.9455410000
C                  7.0477650000     -2.2853270000     -3.5574530000
O                  3.5958200000     -5.5883720000      1.0180680000
O                  2.7576920000     -0.6871610000     -1.5035160000
Cl                 6.0175910000     -6.1988500000     -0.3218620000
H                  4.7576790000     -1.1788530000     -2.6086880000
H                  1.5666770000     -5.0433950000      2.1058570000
H                 -0.4678020000     -3.7366210000      2.7168190000
H                 -0.8866230000     -1.5174920000      1.6067640000
H                  0.7461230000     -0.6762210000     -0.0834050000
H                  7.9310640000     -5.7039870000     -1.9486160000
H                  9.4051690000     -4.7287000000     -3.6345550000
H                  8.8487000000     -2.5213030000     -4.6972650000
H                  6.7899870000     -1.3254850000     -3.9990770000
$end

$rem
BASIS  =  6-311++G(d,p)
GUI  =  2
JOB_TYPE  =  SP
METHOD  =  B3LYP
SCF_CONVERGENCE  = 8
SOLVENT_METHOD = sm12
$end

$smx
solvent dimethylformamide
charges CM5
$end

--------------------------------------------------------------

             Standard Nuclear Orientation (Angstroms)
    I     Atom           X                Y                Z
 ----------------------------------------------------------------
    1      C       5.5661100000    -4.6083660000    -1.0144630000
    2      C       6.4662060000    -4.1044300000    -1.9698420000
    3      C       6.1640090000    -2.8146690000    -2.5734480000
    4      C       4.3843180000    -3.9520660000    -0.5846090000
    5      C       4.1207280000    -2.6411600000    -1.2282930000
    6      C       5.0103570000    -2.1414350000    -2.1747300000
    7      C       3.4539560000    -4.4767960000     0.4111320000
    8      C       2.3018370000    -3.6295270000     0.6886670000
    9      C       2.0574020000    -2.3577640000     0.0542930000
   10      C       2.9565030000    -1.8140760000    -0.9288390000
   11      C       1.3567880000    -4.0835000000     1.6454890000
   12      C       0.2343200000    -3.3550500000     1.9778040000
   13      C      -0.0031760000    -2.0990430000     1.3497110000
   14      C       0.8936340000    -1.6285260000     0.4161320000
   15      C       7.6737850000    -4.7521990000    -2.3940530000
   16      C       8.5005980000    -4.2019730000    -3.3393800000
   17      C       8.1874820000    -2.9446000000    -3.9455410000
   18      C       7.0477650000    -2.2853270000    -3.5574530000
   19      O       3.5958200000    -5.5883720000     1.0180680000
   20      O       2.7576920000    -0.6871610000    -1.5035160000
   21      Cl      6.0175910000    -6.1988500000    -0.3218620000
   22      H       4.7576790000    -1.1788530000    -2.6086880000
   23      H       1.5666770000    -5.0433950000     2.1058570000
   24      H      -0.4678020000    -3.7366210000     2.7168190000
   25      H      -0.8866230000    -1.5174920000     1.6067640000
   26      H       0.7461230000    -0.6762210000    -0.0834050000
   27      H       7.9310640000    -5.7039870000    -1.9486160000
   28      H       9.4051690000    -4.7287000000    -3.6345550000
   29      H       8.8487000000    -2.5213030000    -4.6972650000
   30      H       6.7899870000    -1.3254850000    -3.9990770000
 ----------------------------------------------------------------

   19   -1302.2129262033      7.79e-09  Convergence criterion met
 Total energy in the final basis set =    -1302.4842176176

                    Orbital Energies (a.u.)
 --------------------------------------------------------------

 Alpha MOs
 -- Occupied --
******** -19.0306 -19.0252 -10.2294 -10.1945 -10.1887 -10.1863 -10.1842
-10.1823 -10.1817 -10.1808 -10.1805 -10.1731 -10.1730 -10.1714 -10.1685
-10.1670 -10.1651 -10.1621 -10.1525 -10.1521  -9.4486  -7.2131  -7.2040
 -7.2029  -0.9525  -0.9494  -0.8828  -0.8443  -0.8433  -0.8128  -0.7679
 -0.7602  -0.7421  -0.7301  -0.7154  -0.6515  -0.6470  -0.6160  -0.6007
 -0.5772  -0.5511  -0.5436  -0.5158  -0.4983  -0.4917  -0.4597  -0.4480
 -0.4456  -0.4425  -0.4253  -0.4186  -0.4173  -0.4099  -0.3971  -0.3933
 -0.3831  -0.3754  -0.3648  -0.3612  -0.3522  -0.3412  -0.3391  -0.3340
 -0.3232  -0.3198  -0.3008  -0.2947  -0.2767  -0.2482  -0.2395  -0.2353
 -0.2175  -0.2087  -0.1959  -0.1131

          Ground-State Mulliken Net Atomic Charges

     Atom                 Charge (a.u.)
  ----------------------------------------
      1 C                    -0.198770
      2 C                    -1.679296
      3 C                    -0.108233
      4 C                    -0.411376
      5 C                    -0.414709
      6 C                    -0.411305
      7 C                    -3.748823
      8 C                    -1.742446
      9 C                    -1.669714
     10 C                    -2.997013
     11 C                    -0.261912
     12 C                     1.405889
     13 C                     1.327853
     14 C                    -0.305953
     15 C                     0.807314
     16 C                     1.721880
     17 C                     1.885833
     18 C                     1.770413
     19 O                    -0.194080
     20 O                    -0.329798
     21 Cl                    1.142764
     22 H                    -0.042226
     23 H                     0.111304
     24 H                     0.380061
     25 H                     0.384226
     26 H                     0.119586
     27 H                     0.309702
     28 H                     0.395114
     29 H                     0.408088
     30 H                     0.345627
  ----------------------------------------
  Sum of atomic charges =    -2.000000

                    Cartesian Multipole Moments
 -----------------------------------------------------------------
    Charge (ESU x 10^10)
                -9.6064
    Dipole Moment (Debye)
         X     -33.0359      Y      31.5979      Z       3.2136
       Tot      45.8272
    Quadrupole Moments (Debye-Ang)
        XX    -288.0288     XY     122.6424     YY    -284.5208
        XZ      24.0920     YZ       2.8702     ZZ    -162.4487

 Total job time:  1070.93s(wall), 8210.03s(cpu)
        *  Thank you very much for using Q-Chem.  Have a nice day.  *
