 Q-Chem 5.4, Q-Chem, Inc., Pleasanton, CA (2021)
 Q-Chem 5.4.0 for Intel X86 EM64T Linux

User input:
--------------------------------------------------------------
$molecule
-1 2
Cl                -2.5523110000      1.7741640000      0.7018790000
C                 -1.1526650000      0.7633540000      0.4128210000
C                 -1.2109020000     -0.5997470000      0.5476410000
Cl                -2.6897730000     -1.4114020000      1.0172940000
C                 -0.0633570000     -1.4725150000      0.3145240000
O                 -0.1166010000     -2.7096330000      0.4369810000
C                  1.1524600000     -0.7633830000     -0.0752310000
C                  1.2109120000      0.5997840000     -0.2101130000
Cl                 2.6898140000      1.4114440000     -0.6797510000
C                  0.0633850000      1.4725730000      0.0229790000
O                  0.1166080000      2.7096240000     -0.0994310000
Cl                 2.5524300000     -1.7742620000     -0.3643500000
$end
$rem
MAX_SCF_CYCLES=200
BASIS  =  6-311++G(d,p)
GUI  =  2
JOB_TYPE  =  SP
METHOD  =  B3LYP
SOLVENT_METHOD = PCM
$end
$pcm
theory = CPCM
$end
$solvent
dielectric 37.219
opticaldielectric 1.43
$end

--------------------------------------------------------------

             Standard Nuclear Orientation (Angstroms)
    I     Atom           X                Y                Z
 ----------------------------------------------------------------
    1      Cl     -2.5523110000     1.7741640000     0.7018790000
    2      C      -1.1526650000     0.7633540000     0.4128210000
    3      C      -1.2109020000    -0.5997470000     0.5476410000
    4      Cl     -2.6897730000    -1.4114020000     1.0172940000
    5      C      -0.0633570000    -1.4725150000     0.3145240000
    6      O      -0.1166010000    -2.7096330000     0.4369810000
    7      C       1.1524600000    -0.7633830000    -0.0752310000
    8      C       1.2109120000     0.5997840000    -0.2101130000
    9      Cl      2.6898140000     1.4114440000    -0.6797510000
   10      C       0.0633850000     1.4725730000     0.0229790000
   11      O       0.1166080000     2.7096240000    -0.0994310000
   12      Cl      2.5524300000    -1.7742620000    -0.3643500000
 ----------------------------------------------------------------

    8   -2220.2138710391      7.21e-06  Convergence criterion met
 Total energy in the final basis set =    -2220.2138710391

                    Orbital Energies (a.u.)
 --------------------------------------------------------------

 Alpha MOs
 -- Occupied --
********-101.5643-101.5642-101.5642 -19.1056 -19.1055 -10.2614 -10.2614
-10.2508 -10.2508 -10.2502 -10.2502  -9.4787  -9.4787  -9.4786  -9.4786
 -7.2434  -7.2434  -7.2432  -7.2432  -7.2339  -7.2339  -7.2338  -7.2338
 -7.2328  -7.2328  -7.2327  -7.2327  -1.0404  -1.0372  -0.9139  -0.9021
 -0.8598  -0.8578  -0.8083  -0.7253  -0.7028  -0.6031  -0.5990  -0.5385
 -0.4939  -0.4688  -0.4608  -0.4515  -0.4389  -0.4279  -0.4173  -0.4152
 -0.3947  -0.3587  -0.3487  -0.3419  -0.3396  -0.3329  -0.3196  -0.3128
 -0.2895  -0.2778  -0.2707  -0.2556  -0.1870

 Beta MOs
 -- Occupied --
********-101.5642-101.5641-101.5641 -19.0990 -19.0989 -10.2600 -10.2600
-10.2497 -10.2496 -10.2490 -10.2490  -9.4786  -9.4786  -9.4785  -9.4785
 -7.2434  -7.2434  -7.2433  -7.2433  -7.2337  -7.2336  -7.2336  -7.2336
 -7.2328  -7.2327  -7.2327  -7.2327  -1.0294  -1.0257  -0.9102  -0.9008
 -0.8589  -0.8561  -0.8048  -0.7233  -0.6928  -0.5990  -0.5947  -0.5363
 -0.4906  -0.4661  -0.4508  -0.4463  -0.4322  -0.4232  -0.4157  -0.3915
 -0.3909  -0.3468  -0.3423  -0.3412  -0.3325  -0.3316  -0.3194  -0.3121
 -0.2716  -0.2672  -0.2647  -0.2493

          Ground-State Mulliken Net Atomic Charges

     Atom                 Charge (a.u.)    Spin (a.u.)
  --------------------------------------------------------
      1 Cl                    0.335693       0.006585
      2 C                     0.203422       0.071869
      3 C                     0.217697       0.071715
      4 Cl                    0.333596       0.006588
      5 C                    -1.218310       0.100723
      6 O                    -0.370852       0.242485
      7 C                     0.203188       0.071847
      8 C                     0.216044       0.071951
      9 Cl                    0.333670       0.006611
     10 C                    -1.218954       0.100661
     11 O                    -0.370803       0.242395
     12 Cl                    0.335608       0.006571
  --------------------------------------------------------
  Sum of atomic charges =    -1.000000

                    Cartesian Multipole Moments
 -----------------------------------------------------------------
    Charge (ESU x 10^10)
                -4.8032
    Dipole Moment (Debye)
         X      -0.0017      Y       0.0021      Z      -0.8104
       Tot       0.8104
    Quadrupole Moments (Debye-Ang)
        XX    -108.6324     XY      -0.9159     YY    -136.6328
        XZ       3.2016     YZ       3.7056     ZZ     -98.3600

 Total job time:  23.91s(wall), 113.58s(cpu)
        *  Thank you very much for using Q-Chem.  Have a nice day.  *
