 Gaussian 16, Revision A.03,
 Gaussian 16:  ES64L-G16RevA.03 25-Dec-2016

 ----------------------------------------------------------------
 #P UB3LYP/6-311++G(d,p) SCRF=(PCM,Solvent=n,n-DiMethylFormamide)
 ----------------------------------------------------------------

 ------------------
 Quinone PCM in DMF
 ------------------
 Symbolic Z-matrix:
 Charge =  0 Multiplicity = 1

                         Standard orientation:
 ---------------------------------------------------------------------
 Center     Atomic      Atomic             Coordinates (Angstroms)
 Number     Number       Type             X           Y           Z
 ---------------------------------------------------------------------
      1          6           0        0.002648   -3.135275    1.267120
      2          6           0       -1.239574   -2.630783    0.644403
      3          6           0        1.244049   -2.628478    0.644648
      4          6           0        1.252670   -1.510400   -0.108126
      5          6           0        0.000517   -0.680644   -0.084464
      6          6           0       -1.250139   -1.512617   -0.108203
      7          6           0       -0.000590    0.680718    0.084561
      8          6           0       -1.252677    1.510589    0.108184
      9          6           0        1.250154    1.512559    0.108290
     10          6           0        1.239701    2.630788   -0.644246
     11          6           0       -0.002475    3.135434   -1.266945
     12          6           0       -1.243935    2.628659   -0.644587
     13          8           0        0.003365   -4.023147    2.110242
     14          8           0       -0.003144    4.023289   -2.110084
     15          6           0        2.397111   -1.180934   -1.061621
     16          6           0        2.012618   -1.647720   -2.484201
     17          6           0        3.747576   -1.785415   -0.656136
     18          6           0        2.394974    1.184858    1.061938
     19          6           0        2.010266    1.653370    2.483862
     20          6           0        3.745124    1.789619    0.655791
     21          6           0       -2.397300    1.181190    1.061476
     22          6           0       -3.747669    1.785681    0.655689
     23          6           0       -2.013111    1.648070    2.484104
     24          6           0       -2.394945   -1.185206   -1.061952
     25          6           0       -2.010106   -1.653941   -2.483767
     26          6           0       -3.745036   -1.790075   -0.655769
     27          1           0       -2.108817   -3.268128    0.752271
     28          1           0        2.114463   -3.264169    0.752609
     29          1           0        2.108992    3.268058   -0.752105
     30          1           0       -2.114343    3.264349   -0.752630
     31          1           0        2.509419   -0.098315   -1.121387
     32          1           0        2.813931   -1.397084   -3.184885
     33          1           0        1.100913   -1.161748   -2.835502
     34          1           0        1.857804   -2.729685   -2.512911
     35          1           0        4.036711   -1.504714    0.359593
     36          1           0        4.527521   -1.435637   -1.337237
     37          1           0        3.734597   -2.877227   -0.713078
     38          1           0        2.507766    0.102352    1.122956
     39          1           0        1.855642    2.735395    2.510979
     40          1           0        2.811333    1.403516    3.185119
     41          1           0        1.098323    1.168146    2.835513
     42          1           0        3.731661    2.881446    0.712007
     43          1           0        4.034358    1.508344   -0.359748
     44          1           0        4.525319    1.440689    1.337045
     45          1           0       -2.509611    0.098590    1.121320
     46          1           0       -4.527764    1.436018    1.336679
     47          1           0       -4.036634    1.504941   -0.360076
     48          1           0       -3.734599    2.877498    0.712548
     49          1           0       -2.814581    1.397537    3.184651
     50          1           0       -1.858270    2.730033    2.512731
     51          1           0       -1.101493    1.162119    2.835660
     52          1           0       -2.507832   -0.102739   -1.123212
     53          1           0       -2.811105   -1.404241   -3.185160
     54          1           0       -1.855466   -2.735966   -2.510660
     55          1           0       -1.098124   -1.168784   -2.835429
     56          1           0       -4.525261   -1.441388   -1.337115
     57          1           0       -4.034360   -1.508718    0.359722
     58          1           0       -3.731360   -2.881910   -0.711817
 ---------------------------------------------------------------------

 SCF Done:  E(UB3LYP) =  -1084.51152996     A.U. after   14 cycles

 The electronic state is 1-A.
 Alpha  occ. eigenvalues --  -19.12000 -19.12000 -10.26768 -10.26768 -10.22515
 Alpha  occ. eigenvalues --  -10.22451 -10.21628 -10.21627 -10.21626 -10.21626
 Alpha  occ. eigenvalues --  -10.19463 -10.19463 -10.19463 -10.19462 -10.18271
 Alpha  occ. eigenvalues --  -10.18271 -10.18270 -10.18270 -10.16745 -10.16745
 Alpha  occ. eigenvalues --  -10.16744 -10.16744 -10.16515 -10.16515 -10.16514
 Alpha  occ. eigenvalues --  -10.16514  -1.05067  -1.05065  -0.89881  -0.86647
 Alpha  occ. eigenvalues --   -0.83891  -0.82593  -0.79830  -0.79144  -0.77463
 Alpha  occ. eigenvalues --   -0.74970  -0.74860  -0.70018  -0.69517  -0.69392
 Alpha  occ. eigenvalues --   -0.69127  -0.68667  -0.65148  -0.64338  -0.62895
 Alpha  occ. eigenvalues --   -0.60643  -0.58956  -0.57530  -0.56184  -0.55658
 Alpha  occ. eigenvalues --   -0.53861  -0.51836  -0.49065  -0.48430  -0.47844
 Alpha  occ. eigenvalues --   -0.47093  -0.46740  -0.46481  -0.46419  -0.45199
 Alpha  occ. eigenvalues --   -0.44853  -0.44641  -0.44577  -0.43676  -0.43462
 Alpha  occ. eigenvalues --   -0.41383  -0.41282  -0.41232  -0.41223  -0.41023
 Alpha  occ. eigenvalues --   -0.40825  -0.39697  -0.39251  -0.39124  -0.38996
 Alpha  occ. eigenvalues --   -0.38646  -0.38257  -0.37630  -0.37482  -0.36173
 Alpha  occ. eigenvalues --   -0.35769  -0.35747  -0.35354  -0.35022  -0.35001
 Alpha  occ. eigenvalues --   -0.34751  -0.34608  -0.34423  -0.33920  -0.32925
 Alpha  occ. eigenvalues --   -0.29304  -0.27310  -0.27185  -0.26123  -0.25457
 Alpha  occ. eigenvalues --   -0.24989
 Alpha virt. eigenvalues --   -0.11220  -0.07928  -0.01613  -0.01485  -0.01171
 Alpha virt. eigenvalues --   -0.00546  -0.00013   0.00135   0.00482   0.01382
 Alpha virt. eigenvalues --    0.01466   0.01705   0.02083   0.02621   0.03226

  Beta  occ. eigenvalues --  -19.12000 -19.12000 -10.26768 -10.26768 -10.22515
  Beta  occ. eigenvalues --  -10.22451 -10.21628 -10.21627 -10.21626 -10.21626
  Beta  occ. eigenvalues --  -10.19463 -10.19463 -10.19463 -10.19462 -10.18271
  Beta  occ. eigenvalues --  -10.18271 -10.18270 -10.18270 -10.16745 -10.16745
  Beta  occ. eigenvalues --  -10.16744 -10.16744 -10.16515 -10.16515 -10.16514
  Beta  occ. eigenvalues --  -10.16514  -1.05067  -1.05065  -0.89881  -0.86647
  Beta  occ. eigenvalues --   -0.83891  -0.82593  -0.79830  -0.79144  -0.77463
  Beta  occ. eigenvalues --   -0.74970  -0.74860  -0.70018  -0.69517  -0.69392
  Beta  occ. eigenvalues --   -0.69127  -0.68667  -0.65148  -0.64338  -0.62895
  Beta  occ. eigenvalues --   -0.60643  -0.58956  -0.57530  -0.56184  -0.55658
  Beta  occ. eigenvalues --   -0.53861  -0.51836  -0.49065  -0.48430  -0.47844
  Beta  occ. eigenvalues --   -0.47093  -0.46740  -0.46481  -0.46419  -0.45199
  Beta  occ. eigenvalues --   -0.44853  -0.44641  -0.44577  -0.43676  -0.43462
  Beta  occ. eigenvalues --   -0.41383  -0.41282  -0.41232  -0.41223  -0.41023
  Beta  occ. eigenvalues --   -0.40825  -0.39697  -0.39251  -0.39124  -0.38996
  Beta  occ. eigenvalues --   -0.38646  -0.38257  -0.37630  -0.37482  -0.36173
  Beta  occ. eigenvalues --   -0.35769  -0.35747  -0.35354  -0.35022  -0.35001
  Beta  occ. eigenvalues --   -0.34751  -0.34608  -0.34423  -0.33920  -0.32925
  Beta  occ. eigenvalues --   -0.29304  -0.27310  -0.27185  -0.26123  -0.25457
  Beta  occ. eigenvalues --   -0.24989
  Beta virt. eigenvalues --   -0.11220  -0.07928  -0.01613  -0.01485  -0.01171
  Beta virt. eigenvalues --   -0.00546  -0.00013   0.00135   0.00482   0.01382
  Beta virt. eigenvalues --    0.01466   0.01705   0.02083   0.02621   0.03226

 Mulliken charges and spin densities:
               1          2
     1  C   -0.729063   0.000000
     2  C   -0.273604  -0.000000
     3  C   -0.273076  -0.000000
     4  C    0.794394  -0.000000
     5  C    0.115667   0.000000
     6  C    0.794311  -0.000000
     7  C    0.115638  -0.000000
     8  C    0.794433  -0.000000
     9  C    0.794406   0.000000
    10  C   -0.273571  -0.000000
    11  C   -0.729154  -0.000000
    12  C   -0.272958   0.000000
    13  O   -0.339585   0.000000
    14  O   -0.339588   0.000000
    15  C   -0.201737  -0.000000
    16  C   -0.692238  -0.000000
    17  C   -0.643662   0.000000
    18  C   -0.202524  -0.000000
    19  C   -0.691983   0.000000
    20  C   -0.643974   0.000000
    21  C   -0.201702   0.000000
    22  C   -0.643636  -0.000000
    23  C   -0.692277  -0.000000
    24  C   -0.202347   0.000000
    25  C   -0.691948   0.000000
    26  C   -0.643999  -0.000000
    27  H    0.232083  -0.000000
    28  H    0.232142  -0.000000
    29  H    0.232077  -0.000000
    30  H    0.232143   0.000000
    31  H    0.288033  -0.000000
    32  H    0.171333   0.000000
    33  H    0.137803  -0.000000
    34  H    0.184516   0.000000
    35  H    0.140871  -0.000000
    36  H    0.184894  -0.000000
    37  H    0.154026   0.000000
    38  H    0.288548   0.000000
    39  H    0.184574   0.000000
    40  H    0.171315  -0.000000
    41  H    0.137178   0.000000
    42  H    0.154063   0.000000
    43  H    0.140776   0.000000
    44  H    0.184867   0.000000
    45  H    0.288004   0.000000
    46  H    0.184893   0.000000
    47  H    0.140871  -0.000000
    48  H    0.154008  -0.000000
    49  H    0.171328   0.000000
    50  H    0.184511  -0.000000
    51  H    0.137767  -0.000000
    52  H    0.288468   0.000000
    53  H    0.171324  -0.000000
    54  H    0.184573  -0.000000
    55  H    0.137100   0.000000
    56  H    0.184867   0.000000
    57  H    0.140770  -0.000000
    58  H    0.154050  -0.000000
 Sum of Mulliken charges =  -0.00000   0.00000

 Dipole moment (field-independent basis, Debye):
    X=             -0.0004    Y=             -0.0006    Z=             -0.0004  Tot=              0.0008
 Quadrupole moment (field-independent basis, Debye-Ang):
   XX=           -138.9497   YY=           -203.1893   ZZ=           -174.5250
   XY=              0.0529   XZ=             -0.0273   YZ=             34.5087

 Normal termination of Gaussian 16 at Sat Jan 13 19:44:57 2024.
