 Gaussian 16, Revision A.03,
 Gaussian 16:  ES64L-G16RevA.03 25-Dec-2016

 ----------------------------------------------------------------------
 #P UB3LYP/6-311++G(d,p) nosym opt freq SCRF=(PCM,Solvent=n,n-DiMethylF
 ormamide)
 ----------------------------------------------------------------------

 -------
 Reduced
 -------
 Symbolic Z-matrix:
 Charge = -2 Multiplicity = 1

 SCF Done:  E(UB3LYP) =  -1454.76087884     A.U. after   18 cycles
 SCF Done:  E(UB3LYP) =  -1454.76179468     A.U. after   14 cycles
 SCF Done:  E(UB3LYP) =  -1454.76193284     A.U. after   13 cycles
 SCF Done:  E(UB3LYP) =  -1454.76193642     A.U. after   12 cycles
 SCF Done:  E(UB3LYP) =  -1454.76193893     A.U. after   11 cycles
 Optimization completed.
    -- Stationary point found.
 Normal termination of Gaussian 16 at Sun Feb 11 01:51:54 2024.

 ----------------------------------------------------------------------
 #P Geom=AllCheck Guess=TCheck SCRF=Check GenChk UB3LYP/6-311++G(d,p) F
 req
 ----------------------------------------------------------------------

 Structure from the checkpoint file:  "232-an.chk"
 -------
 Reduced
 -------
 Charge = -2 Multiplicity = 1

                          Input orientation:
 ---------------------------------------------------------------------
 Center     Atomic      Atomic             Coordinates (Angstroms)
 Number     Number       Type             X           Y           Z
 ---------------------------------------------------------------------
      1          6           0        5.905037   -5.209026    1.118203
      2          6           0        6.792258   -5.084036    0.075561
      3          6           0        6.578504   -4.093799   -0.916342
      4          6           0        4.769796   -4.373718    1.240731
      5          6           0        4.552886   -3.364047    0.230290
      6          6           0        5.485859   -3.264309   -0.828297
      7          6           0        3.862857   -4.550390    2.362370
      8          6           0        2.771132   -3.660260    2.358418
      9          6           0        2.559248   -2.672728    1.370244
     10          6           0        3.415587   -2.460690    0.272232
     11          8           0        4.063276   -5.462672    3.277881
     12          8           0        3.228922   -1.542213   -0.639783
     13          1           0        6.061764   -5.963600    1.878937
     14          1           0        5.314491   -2.505053   -1.581453
     15         17           0        7.700364   -3.906868   -2.273166
     16         17           0        8.190219   -6.167494   -0.006252
     17          1           0        2.053037   -3.746818    3.172329
     18          1           0        1.685007   -2.029080    1.455147
 ---------------------------------------------------------------------

 SCF Done:  E(UB3LYP) =  -1454.76193893     A.U. after    2 cycles

 Alpha  occ. eigenvalues -- -101.55019-101.55019 -19.01742 -19.01738 -10.22544
 Alpha  occ. eigenvalues --  -10.22499 -10.17426 -10.17420 -10.16571 -10.16560
 Alpha  occ. eigenvalues --  -10.15086 -10.15046 -10.12561 -10.12514  -9.46477
 Alpha  occ. eigenvalues --   -9.46476  -7.22915  -7.22915  -7.21972  -7.21972
 Alpha  occ. eigenvalues --   -7.21940  -7.21939  -0.92838  -0.92376  -0.89482
 Alpha  occ. eigenvalues --   -0.84698  -0.81846  -0.76310  -0.73316  -0.70128
 Alpha  occ. eigenvalues --   -0.64744  -0.60476  -0.58251  -0.53926  -0.48340
 Alpha  occ. eigenvalues --   -0.47899  -0.45666  -0.42454  -0.42060  -0.40429
 Alpha  occ. eigenvalues --   -0.40213  -0.39378  -0.36355  -0.36065  -0.35761
 Alpha  occ. eigenvalues --   -0.34264  -0.32945  -0.32572  -0.31686  -0.31468
 Alpha  occ. eigenvalues --   -0.30402  -0.29910  -0.23832  -0.22473  -0.21967
 Alpha  occ. eigenvalues --   -0.19940  -0.19724  -0.11932
 Alpha virt. eigenvalues --   -0.02088  -0.00395  -0.00213   0.00374   0.01715
 Alpha virt. eigenvalues --    0.01739   0.03153   0.04434   0.04461   0.05388
 Alpha virt. eigenvalues --    0.05597   0.06385   0.06784   0.07231   0.07637

  Beta  occ. eigenvalues -- -101.55019-101.55019 -19.01742 -19.01738 -10.22544
  Beta  occ. eigenvalues --  -10.22499 -10.17426 -10.17420 -10.16571 -10.16560
  Beta  occ. eigenvalues --  -10.15086 -10.15046 -10.12561 -10.12514  -9.46477
  Beta  occ. eigenvalues --   -9.46476  -7.22915  -7.22915  -7.21972  -7.21972
  Beta  occ. eigenvalues --   -7.21940  -7.21939  -0.92838  -0.92376  -0.89482
  Beta  occ. eigenvalues --   -0.84698  -0.81846  -0.76310  -0.73316  -0.70128
  Beta  occ. eigenvalues --   -0.64744  -0.60476  -0.58251  -0.53926  -0.48340
  Beta  occ. eigenvalues --   -0.47899  -0.45666  -0.42454  -0.42060  -0.40429
  Beta  occ. eigenvalues --   -0.40213  -0.39378  -0.36355  -0.36065  -0.35761
  Beta  occ. eigenvalues --   -0.34264  -0.32945  -0.32572  -0.31686  -0.31468
  Beta  occ. eigenvalues --   -0.30402  -0.29910  -0.23832  -0.22473  -0.21967
  Beta  occ. eigenvalues --   -0.19940  -0.19724  -0.11932
  Beta virt. eigenvalues --   -0.02088  -0.00395  -0.00213   0.00374   0.01715
  Beta virt. eigenvalues --    0.01739   0.03153   0.04434   0.04461   0.05388
  Beta virt. eigenvalues --    0.05597   0.06385   0.06784   0.07231   0.07637

 Mulliken charges and spin densities:
               1          2
     1  C   -0.875516  -0.000000
     2  C    0.718039   0.000000
     3  C    0.714198   0.000000
     4  C   -0.305610   0.000000
     5  C   -0.308586   0.000000
     6  C   -0.874064   0.000000
     7  C   -0.664652  -0.000000
     8  C    0.016020   0.000000
     9  C    0.017402  -0.000000
    10  C   -0.665689  -0.000000
    11  O   -0.721715   0.000000
    12  O   -0.721140  -0.000000
    13  H    0.198357  -0.000000
    14  H    0.199181  -0.000000
    15  Cl   0.501462  -0.000000
    16  Cl   0.501191  -0.000000
    17  H    0.135563   0.000000
    18  H    0.135559  -0.000000
 Sum of Mulliken charges =  -2.00000  -0.00000

 Dipole moment (field-independent basis, Debye):
    X=            -40.9028    Y=             35.7603    Z=             -9.3063  Tot=             55.1221
 Quadrupole moment (field-independent basis, Debye-Ang):
   XX=           -302.0288   YY=           -269.1918   ZZ=           -149.5707
   XY=            166.5835   XZ=            -32.9103   YZ=             59.3128

  Exact polarizability: 313.829 -82.501 232.409 -86.461 -45.524 268.724
 Approx polarizability: 343.780 -91.088 262.211 -92.310 -56.738 301.605

                      1                      2                      3
                      A                      A                      A
 Frequencies --     57.5094               102.7954               141.9412
 Red. masses --     21.2715                 5.7678                12.8448
 Frc consts  --      0.0415                 0.0359                 0.1525
 IR Inten    --      0.0236                 3.9992                21.3720

                      4                      5                      6
                      A                      A                      A
 Frequencies --    169.1967               193.8306               221.8141
 Red. masses --     13.7664                30.9674                 5.9318
 Frc consts  --      0.2322                 0.6855                 0.1720
 IR Inten    --      1.5585                 2.4001                 0.0264

                      7                      8                      9
                      A                      A                      A
 Frequencies --    289.3935               292.7816               304.2778
 Red. masses --     17.6467                16.3554                 8.0997
 Frc consts  --      0.8707                 0.8260                 0.4418
 IR Inten    --      1.0092                 8.8635                 0.5072

                     10                     11                     12
                      A                      A                      A
 Frequencies --    370.5237               431.7107               434.4549
 Red. masses --      6.0563                 7.3767                 3.7809
 Frc consts  --      0.4899                 0.8100                 0.4205
 IR Inten    --      0.0122                14.5626                13.5309

                     13                     14                     15
                      A                      A                      A
 Frequencies --    452.2853               484.7866               526.2148
 Red. masses --      8.3344                12.6711                 5.4703
 Frc consts  --      1.0045                 1.7545                 0.8925
 IR Inten    --     10.5393                 4.1976                 0.0204

                     16                     17                     18
                      A                      A                      A
 Frequencies --    551.3463               619.9479               624.4456
 Red. masses --      7.6441                 4.6165                 5.0160
 Frc consts  --      1.3691                 1.0454                 1.1524
 IR Inten    --      0.1850                 6.3293                 0.2757

                     19                     20                     21
                      A                      A                      A
 Frequencies --    641.4369               648.6909               725.5366
 Red. masses --      7.2030                 2.4906                 6.4164
 Frc consts  --      1.7461                 0.6175                 1.9900
 IR Inten    --    173.8254                 7.8945                 9.1471

                     22                     23                     24
                      A                      A                      A
 Frequencies --    773.7610               785.0494               816.8012
 Red. masses --      7.6707                 4.1134                 1.8722
 Frc consts  --      2.7058                 1.4936                 0.7359
 IR Inten    --    320.8612                 0.0814                93.8790

                     25                     26                     27
                      A                      A                      A
 Frequencies --    873.0823               886.7547               899.9271
 Red. masses --      7.7589                 1.4263                 1.4328
 Frc consts  --      3.4847                 0.6608                 0.6837
 IR Inten    --    112.4318                 0.4418                 1.8803

                     28                     29                     30
                      A                      A                      A
 Frequencies --    923.7815              1042.5669              1087.2519
 Red. masses --      1.4148                 2.0022                 5.5814
 Frc consts  --      0.7114                 1.2822                 3.8874
 IR Inten    --     42.4754                58.8463               170.1572

                     31                     32                     33
                      A                      A                      A
 Frequencies --   1091.9237              1168.6813              1195.3522
 Red. masses --      1.8323                 2.7343                 1.4410
 Frc consts  --      1.2872                 2.2003                 1.2131
 IR Inten    --     37.4351                 1.5504               332.0788

                     34                     35                     36
                      A                      A                      A
 Frequencies --   1198.4866              1253.0030              1311.6749
 Red. masses --      4.4604                 2.0670                 6.1647
 Frc consts  --      3.7747                 1.9120                 6.2491
 IR Inten    --    278.8857               545.4255               247.0349

                     37                     38                     39
                      A                      A                      A
 Frequencies --   1339.2633              1360.1587              1387.7467
 Red. masses --      9.6530                 5.4787                 3.1978
 Frc consts  --     10.2011                 5.9718                 3.6284
 IR Inten    --   1253.0393               164.7796               447.2831

                     40                     41                     42
                      A                      A                      A
 Frequencies --   1426.9393              1477.2560              1525.6860
 Red. masses --      3.6105                 6.5686                 4.9785
 Frc consts  --      4.3314                 8.4457                 6.8278
 IR Inten    --    183.1069                70.7636               574.5692

                     43                     44                     45
                      A                      A                      A
 Frequencies --   1569.8913              1588.5904              3107.7514
 Red. masses --      7.1649                 7.9858                 1.0838
 Frc consts  --     10.4039                11.8739                 6.1672
 IR Inten    --      0.0624                24.2884               101.1426

                     46                     47                     48
                      A                      A                      A
 Frequencies --   3129.8502              3185.4563              3191.5057
 Red. masses --      1.0909                 1.0897                 1.0894
 Frc consts  --      6.2962                 6.5149                 6.5376
 IR Inten    --    154.4117                 9.4064                15.7534

 - Thermochemistry -
 -------------------
 Temperature   298.150 Kelvin.  Pressure   1.00000 Atm.
 Atom     1 has atomic number  6 and mass  12.00000

 Molecular mass:   225.95883 amu.
 Principal axes and moments of inertia in atomic units:
                           1         2         3
     Eigenvalues --  2095.067074572.377146667.41010
           X            0.83000  -0.15053   0.53707
           Y           -0.29477   0.69906   0.65148
           Z           -0.47352  -0.69904   0.53585
 This molecule is an asymmetric top.
 Rotational symmetry number  1.
 Warning -- assumption of classical behavior for rotation
           may cause significant error
 Rotational temperatures (Kelvin)      0.04134     0.01894     0.01299
 Rotational constants (GHZ):           0.86142     0.39471     0.27068
 Zero-point vibrational energy     286404.6 (Joules/Mol)
                                   68.45235 (Kcal/Mol)
 Warning -- explicit consideration of  17 degrees of freedom as
           vibrations may cause significant error
 Vibrational temperatures:     82.74   147.90   204.22   243.44   278.88
          (Kelvin)            319.14   416.37   421.25   437.79   533.10
                              621.14   625.08   650.74   697.50   757.11
                              793.26   891.97   898.44   922.88   933.32
                             1043.89  1113.27  1129.51  1175.19  1256.17
                             1275.84  1294.79  1329.12  1500.02  1564.31
                             1571.03  1681.47  1719.85  1724.35  1802.79
                             1887.21  1926.90  1956.96  1996.66  2053.05
                             2125.44  2195.12  2258.72  2285.63  4471.36
                             4503.16  4583.16  4591.86

 Zero-point correction=                           0.109086 (Hartree/Particle)
 Thermal correction to Energy=                    0.120244
 Thermal correction to Enthalpy=                  0.121188
 Thermal correction to Gibbs Free Energy=         0.071162
 Sum of electronic and zero-point Energies=          -1454.652853
 Sum of electronic and thermal Energies=             -1454.641695
 Sum of electronic and thermal Enthalpies=           -1454.640751
 Sum of electronic and thermal Free Energies=        -1454.690777

                     E (Thermal)             CV                S
                      KCal/Mol        Cal/Mol-Kelvin    Cal/Mol-Kelvin
 Total                   75.454             42.908            105.289
 Electronic               0.000              0.000              0.000
 Translational            0.889              2.981             42.148
 Rotational               0.889              2.981             32.524
 Vibrational             73.677             36.946             30.617
 Vibration     1          0.596              1.974              4.541
 Vibration     2          0.605              1.947              3.401
 Vibration     3          0.615              1.911              2.778
 Vibration     4          0.625              1.880              2.444
 Vibration     5          0.635              1.848              2.191
 Vibration     6          0.648              1.808              1.944
 Vibration     7          0.686              1.693              1.478
 Vibration     8          0.688              1.687              1.458
 Vibration     9          0.695              1.666              1.393
 Vibration    10          0.743              1.533              1.078
 Vibration    11          0.793              1.401              0.853
 Vibration    12          0.795              1.395              0.844
 Vibration    13          0.811              1.356              0.789
 Vibration    14          0.841              1.284              0.697
 Vibration    15          0.881              1.192              0.596
 Vibration    16          0.907              1.137              0.541
 Vibration    17          0.980              0.990              0.417

 Optimization completed.
    -- Stationary point found.
 Normal termination of Gaussian 16 at Sun Feb 11 02:11:52 2024.
