 Gaussian 16, Revision A.03,
 Gaussian 16:  ES64L-G16RevA.03 25-Dec-2016

 ----------------------------------------------------------------------
 #P UB3LYP/6-311++G(d,p) nosym opt freq SCRF=(PCM,Solvent=n,n-DiMethylF
 ormamide)
 ----------------------------------------------------------------------

 --------
 Oxidized
 --------
 Symbolic Z-matrix:
 Charge =  0 Multiplicity = 1

 SCF Done:  E(UB3LYP) =  -744.292989290     A.U. after   16 cycles
 SCF Done:  E(UB3LYP) =  -744.293753506     A.U. after   14 cycles
 SCF Done:  E(UB3LYP) =  -744.293894844     A.U. after   14 cycles
 SCF Done:  E(UB3LYP) =  -744.293724626     A.U. after   14 cycles
 SCF Done:  E(UB3LYP) =  -744.293926666     A.U. after   13 cycles
 SCF Done:  E(UB3LYP) =  -744.293961459     A.U. after   13 cycles
 SCF Done:  E(UB3LYP) =  -744.293964066     A.U. after   12 cycles
 SCF Done:  E(UB3LYP) =  -744.293965226     A.U. after   11 cycles
 SCF Done:  E(UB3LYP) =  -744.293965321     A.U. after   11 cycles
 SCF Done:  E(UB3LYP) =  -744.293965337     A.U. after    9 cycles
 Optimization completed.
    -- Stationary point found.
 Normal termination of Gaussian 16 at Sun Feb 11 16:04:04 2024.

 ----------------------------------------------------------------------
 #P Geom=AllCheck Guess=TCheck SCRF=Check GenChk UB3LYP/6-311++G(d,p) F
 req
 ----------------------------------------------------------------------

 Structure from the checkpoint file:  "320.chk"
 --------
 Oxidized
 --------
 Charge =  0 Multiplicity = 1

                          Input orientation:
 ---------------------------------------------------------------------
 Center     Atomic      Atomic             Coordinates (Angstroms)
 Number     Number       Type             X           Y           Z
 ---------------------------------------------------------------------
      1          6           0       -0.324696    4.016311    0.018478
      2          6           0        0.622665    3.064285    0.065669
      3          6           0        0.339629    1.628282   -0.142177
      4          6           0       -0.945347    1.237465   -0.428191
      5          6           0        1.443442    0.708090   -0.027495
      6          6           0        1.442144   -0.744655    0.101428
      7          6           0        2.790470    1.081639   -0.067321
      8          6           0        2.799988   -1.153286    0.120882
      9          6           0        0.455658   -1.733935    0.252277
     10          6           0        0.842170   -3.062945    0.388117
     11          6           0        2.196679   -3.436618    0.383813
     12          6           0        3.198304   -2.481340    0.256664
     13          7           0        3.580276   -0.011443    0.008959
     14          1           0       -1.188973    0.204872   -0.632175
     15          1           0        3.235351    2.056941   -0.176110
     16          1           0       -0.596141   -1.485941    0.279465
     17          1           0        0.081563   -3.826408    0.502972
     18          1           0        2.464696   -4.481252    0.489331
     19          1           0        4.246524   -2.755700    0.268251
     20          1           0        4.589489    0.007631   -0.016594
     21          6           0       -1.719823    3.671362   -0.264787
     22          6           0       -2.034943    2.171789   -0.525998
     23          8           0       -2.611901    4.501520   -0.303781
     24          8           0       -3.188784    1.852737   -0.809124
     25          1           0       -0.093282    5.060929    0.191986
     26          1           0        1.639773    3.356370    0.292158
 ---------------------------------------------------------------------

 SCF Done:  E(UB3LYP) =  -744.293965337     A.U. after    1 cycles

 Alpha  occ. eigenvalues --  -19.14288 -19.12565 -14.38801 -10.28034 -10.26898
 Alpha  occ. eigenvalues --  -10.24136 -10.23236 -10.22848 -10.21945 -10.20545
 Alpha  occ. eigenvalues --  -10.20114 -10.19843 -10.19204 -10.19046 -10.18690
 Alpha  occ. eigenvalues --  -10.18504 -10.18332  -1.07609  -1.04379  -1.01486
 Alpha  occ. eigenvalues --   -0.87807  -0.86437  -0.81618  -0.77171  -0.76110
 Alpha  occ. eigenvalues --   -0.75288  -0.71539  -0.64844  -0.63962  -0.62935
 Alpha  occ. eigenvalues --   -0.60713  -0.57992  -0.56364  -0.52270  -0.51463
 Alpha  occ. eigenvalues --   -0.50116  -0.49055  -0.47757  -0.46402  -0.45708
 Alpha  occ. eigenvalues --   -0.45131  -0.44833  -0.44787  -0.44294  -0.42522
 Alpha  occ. eigenvalues --   -0.41998  -0.39474  -0.38927  -0.37747  -0.36822
 Alpha  occ. eigenvalues --   -0.36073  -0.35580  -0.30788  -0.30492  -0.26793
 Alpha  occ. eigenvalues --   -0.26052  -0.25320  -0.22774
 Alpha virt. eigenvalues --   -0.13707  -0.04941  -0.02307  -0.01607  -0.00745
 Alpha virt. eigenvalues --   -0.00254   0.00231   0.00496   0.01667   0.02075
 Alpha virt. eigenvalues --    0.03079   0.03371   0.03918   0.03996   0.05025

  Beta  occ. eigenvalues --  -19.14288 -19.12565 -14.38801 -10.28034 -10.26898
  Beta  occ. eigenvalues --  -10.24136 -10.23236 -10.22848 -10.21945 -10.20545
  Beta  occ. eigenvalues --  -10.20114 -10.19843 -10.19204 -10.19046 -10.18690
  Beta  occ. eigenvalues --  -10.18504 -10.18332  -1.07609  -1.04379  -1.01486
  Beta  occ. eigenvalues --   -0.87807  -0.86437  -0.81618  -0.77171  -0.76110
  Beta  occ. eigenvalues --   -0.75288  -0.71539  -0.64844  -0.63962  -0.62935
  Beta  occ. eigenvalues --   -0.60713  -0.57992  -0.56364  -0.52270  -0.51463
  Beta  occ. eigenvalues --   -0.50116  -0.49055  -0.47757  -0.46402  -0.45708
  Beta  occ. eigenvalues --   -0.45131  -0.44833  -0.44787  -0.44294  -0.42522
  Beta  occ. eigenvalues --   -0.41998  -0.39474  -0.38927  -0.37747  -0.36822
  Beta  occ. eigenvalues --   -0.36073  -0.35580  -0.30788  -0.30492  -0.26793
  Beta  occ. eigenvalues --   -0.26052  -0.25320  -0.22774
  Beta virt. eigenvalues --   -0.13707  -0.04941  -0.02307  -0.01607  -0.00745
  Beta virt. eigenvalues --   -0.00254   0.00231   0.00496   0.01667   0.02075
  Beta virt. eigenvalues --    0.03079   0.03371   0.03918   0.03996   0.05025

 Mulliken charges and spin densities:
               1          2
     1  C    0.544062  -0.000000
     2  C   -1.670727   0.000000
     3  C    1.097992   0.000000
     4  C   -0.480818   0.000000
     5  C    1.227475  -0.000000
     6  C    1.289666  -0.000000
     7  C   -0.097226  -0.000000
     8  C   -0.304393  -0.000000
     9  C   -0.971377   0.000000
    10  C   -0.509553  -0.000000
    11  C   -0.259507   0.000000
    12  C   -0.672811   0.000000
    13  N   -0.018470  -0.000000
    14  H    0.139869   0.000000
    15  H    0.230312  -0.000000
    16  H    0.108414   0.000000
    17  H    0.204206  -0.000000
    18  H    0.193000   0.000000
    19  H    0.197650   0.000000
    20  H    0.350557  -0.000000
    21  C   -0.419801   0.000000
    22  C    0.126465  -0.000000
    23  O   -0.306365  -0.000000
    24  O   -0.362188   0.000000
    25  H    0.247576  -0.000000
    26  H    0.115993   0.000000
 Sum of Mulliken charges =  -0.00000  -0.00000

 Dipole moment (field-independent basis, Debye):
    X=             15.0170    Y=             -3.8783    Z=              1.6745  Tot=             15.5998
 Quadrupole moment (field-independent basis, Debye-Ang):
   XX=            -91.9123   YY=           -103.6134   ZZ=           -103.0830
   XY=             29.1295   XZ=             -5.9544   YZ=              3.2408

  Exact polarizability: 427.799-122.684 384.893  32.765 -21.933 126.586
 Approx polarizability: 551.691-115.829 406.798  40.872 -21.666 148.403

                      1                      2                      3
                      A                      A                      A
 Frequencies --     37.2159                52.7023                88.2912
 Red. masses --      6.4062                 5.9462                 5.5444
 Frc consts  --      0.0052                 0.0097                 0.0255
 IR Inten    --      1.0285                 2.5129                 2.0536

                      4                      5                      6
                      A                      A                      A
 Frequencies --     98.9083               170.9205               222.1594
 Red. masses --      6.5807                 5.5902                 4.0751
 Frc consts  --      0.0379                 0.0962                 0.1185
 IR Inten    --      2.9169                 2.5693                12.0486

                      7                      8                      9
                      A                      A                      A
 Frequencies --    251.1536               262.3706               296.6720
 Red. masses --      5.7830                 5.4894                 6.0438
 Frc consts  --      0.2149                 0.2226                 0.3134
 IR Inten    --     17.9280                 5.7134                14.2622

                     10                     11                     12
                      A                      A                      A
 Frequencies --    341.8264               364.5851               428.2431
 Red. masses --      5.0558                14.8808                 2.8803
 Frc consts  --      0.3481                 1.1654                 0.3112
 IR Inten    --      9.6214                 6.5925                21.4190

                     13                     14                     15
                      A                      A                      A
 Frequencies --    456.2130               468.9461               494.7147
 Red. masses --      6.7696                 3.2700                 4.8553
 Frc consts  --      0.8301                 0.4237                 0.7001
 IR Inten    --     45.0544                 0.1951                 7.8962

                     16                     17                     18
                      A                      A                      A
 Frequencies --    533.9204               558.7884               578.0911
 Red. masses --      1.6493                 6.2428                 4.0217
 Frc consts  --      0.2770                 1.1485                 0.7919
 IR Inten    --    106.8338                 7.9977                 6.4853

                     19                     20                     21
                      A                      A                      A
 Frequencies --    585.9396               604.9230               620.0200
 Red. masses --      6.2337                 2.3054                 4.8515
 Frc consts  --      1.2610                 0.4970                 1.0988
 IR Inten    --     65.1401                 8.2120                13.6143

                     22                     23                     24
                      A                      A                      A
 Frequencies --    656.7747               660.6225               731.3757
 Red. masses --      7.0096                 2.5599                 5.5525
 Frc consts  --      1.7815                 0.6582                 1.7499
 IR Inten    --      4.9674                45.0799                 4.2143

                     25                     26                     27
                      A                      A                      A
 Frequencies --    756.1638               769.3233               771.5453
 Red. masses --      1.2988                 2.3038                 4.0523
 Frc consts  --      0.4376                 0.8034                 1.4213
 IR Inten    --    114.2466                12.3703                 0.2793

                     28                     29                     30
                      A                      A                      A
 Frequencies --    779.2603               832.9038               861.0073
 Red. masses --      5.2394                 1.7566                 1.6773
 Frc consts  --      1.8746                 0.7180                 0.7326
 IR Inten    --     24.9324                95.4738                 0.6912

                     31                     32                     33
                      A                      A                      A
 Frequencies --    866.1865               870.4846               885.7348
 Red. masses --      1.5713                 1.8558                 4.8959
 Frc consts  --      0.6946                 0.8285                 2.2630
 IR Inten    --      2.3081                 5.9144                 2.0067

                     34                     35                     36
                      A                      A                      A
 Frequencies --    911.1784               947.4828               955.0892
 Red. masses --      7.1247                 3.4403                 1.3717
 Frc consts  --      3.4852                 1.8197                 0.7372
 IR Inten    --     10.7586                44.8954                 2.1786

                     37                     38                     39
                      A                      A                      A
 Frequencies --    992.3648              1002.3625              1040.6126
 Red. masses --      1.2871                 1.2847                 2.2298
 Frc consts  --      0.7468                 0.7605                 1.4227
 IR Inten    --      0.1465                 0.2245                16.1548

                     40                     41                     42
                      A                      A                      A
 Frequencies --   1115.7155              1144.4579              1151.2171
 Red. masses --      2.8714                 1.9579                 1.8759
 Frc consts  --      2.1060                 1.5109                 1.4647
 IR Inten    --     14.5280               181.7186               160.3695

                     43                     44                     45
                      A                      A                      A
 Frequencies --   1169.6869              1177.6837              1201.6772
 Red. masses --      1.4996                 1.2673                 1.3438
 Frc consts  --      1.2088                 1.0356                 1.1433
 IR Inten    --    247.6603                 6.1793               384.0530

                     46                     47                     48
                      A                      A                      A
 Frequencies --   1248.5936              1258.0332              1299.7751
 Red. masses --      2.1423                 2.8570                 2.0447
 Frc consts  --      1.9678                 2.6640                 2.0353
 IR Inten    --    342.5574               431.3748               130.6944

                     49                     50                     51
                      A                      A                      A
 Frequencies --   1310.1974              1352.1439              1364.2680
 Red. masses --      2.0832                 2.3207                 6.1144
 Frc consts  --      2.1069                 2.4999                 6.7051
 IR Inten    --     51.4141                 1.7230                25.7552

                     52                     53                     54
                      A                      A                      A
 Frequencies --   1386.2102              1433.0093              1452.4872
 Red. masses --      2.7545                 2.1274                 2.6168
 Frc consts  --      3.1186                 2.5740                 3.2527
 IR Inten    --     10.6158               268.4797               909.6653

                     55                     56                     57
                      A                      A                      A
 Frequencies --   1487.6882              1514.2697              1531.1899
 Red. masses --      2.4624                 3.3220                 2.6795
 Frc consts  --      3.2110                 4.4881                 3.7014
 IR Inten    --     40.5161              1064.5722               298.0119

                     58                     59                     60
                      A                      A                      A
 Frequencies --   1569.8439              1611.8780              1648.8941
 Red. masses --      6.7571                 5.5851                 7.8234
 Frc consts  --      9.8113                 8.5496                12.5323
 IR Inten    --   1127.0796                 9.5336               484.9171

                     61                     62                     63
                      A                      A                      A
 Frequencies --   1657.1168              1665.4975              1719.1679
 Red. masses --      7.5133                 6.7278                11.9331
 Frc consts  --     12.1559                10.9955                20.7798
 IR Inten    --    445.0441                 4.7796               452.6428

                     64                     65                     66
                      A                      A                      A
 Frequencies --   3173.2066              3182.7013              3183.9029
 Red. masses --      1.0867                 1.0908                 1.0892
 Frc consts  --      6.4471                 6.5099                 6.5054
 IR Inten    --      1.0866                14.9594                 6.6123

                     67                     68                     69
                      A                      A                      A
 Frequencies --   3194.0776              3207.3486              3209.7524
 Red. masses --      1.0963                 1.0946                 1.0933
 Frc consts  --      6.5897                 6.6343                 6.6362
 IR Inten    --     30.0876                 9.5174                 4.4462

                     70                     71                     72
                      A                      A                      A
 Frequencies --   3226.8553              3267.9602              3634.1332
 Red. masses --      1.0892                 1.0968                 1.0817
 Frc consts  --      6.6821                 6.9014                 8.4173
 IR Inten    --      6.2591                 4.3578               375.4487

 - Thermochemistry -
 -------------------
 Temperature   298.150 Kelvin.  Pressure   1.00000 Atm.
 Atom     1 has atomic number  6 and mass  12.00000

 Molecular mass:   223.06333 amu.
 Principal axes and moments of inertia in atomic units:
                           1         2         3
     Eigenvalues --  1526.775416907.774568366.85081
           X           -0.62025   0.77953  -0.08729
           Y            0.77971   0.62487   0.03997
           Z           -0.08570   0.04327   0.99538
 This molecule is an asymmetric top.
 Rotational symmetry number  1.
 Warning -- assumption of classical behavior for rotation
           may cause significant error
 Rotational temperatures (Kelvin)      0.05673     0.01254     0.01035
 Rotational constants (GHZ):           1.18206     0.26126     0.21570
 Zero-point vibrational energy     511748.8 (Joules/Mol)
                                  122.31090 (Kcal/Mol)
 Warning -- explicit consideration of  21 degrees of freedom as
           vibrations may cause significant error
 Vibrational temperatures:     53.55    75.83   127.03   142.31   245.92
          (Kelvin)            319.64   361.35   377.49   426.84   491.81
                              524.56   616.15   656.39   674.71   711.78
                              768.19   803.97   831.74   843.04   870.35
                              892.07   944.95   950.49  1052.29  1087.95
                             1106.88  1110.08  1121.18  1198.36  1238.80
                             1246.25  1252.43  1274.37  1310.98  1363.22
                             1374.16  1427.79  1442.18  1497.21  1605.27
                             1646.62  1656.34  1682.92  1694.42  1728.95
                             1796.45  1810.03  1870.09  1885.08  1945.43
                             1962.88  1994.45  2061.78  2089.81  2140.45
                             2178.70  2203.04  2258.66  2319.13  2372.39
                             2384.22  2396.28  2473.50  4565.54  4579.20
                             4580.93  4595.57  4614.66  4618.12  4642.73
                             4701.87  5228.71

 Zero-point correction=                           0.194915 (Hartree/Particle)
 Thermal correction to Energy=                    0.207716
 Thermal correction to Enthalpy=                  0.208660
 Thermal correction to Gibbs Free Energy=         0.154665
 Sum of electronic and zero-point Energies=           -744.099051
 Sum of electronic and thermal Energies=              -744.086249
 Sum of electronic and thermal Enthalpies=            -744.085305
 Sum of electronic and thermal Free Energies=         -744.139300

                     E (Thermal)             CV                S
                      KCal/Mol        Cal/Mol-Kelvin    Cal/Mol-Kelvin
 Total                  130.344             51.292            113.643
 Electronic               0.000              0.000              0.000
 Translational            0.889              2.981             42.109
 Rotational               0.889              2.981             32.845
 Vibrational            128.566             45.330             38.688
 Vibration     1          0.594              1.982              5.402
 Vibration     2          0.596              1.977              4.713
 Vibration     3          0.601              1.957              3.698
 Vibration     4          0.604              1.950              3.476
 Vibration     5          0.626              1.878              2.425
 Vibration     6          0.648              1.807              1.941
 Vibration     7          0.663              1.761              1.722
 Vibration     8          0.670              1.742              1.646
 Vibration     9          0.690              1.680              1.436
 Vibration    10          0.721              1.592              1.204
 Vibration    11          0.738              1.545              1.102
 Vibration    12          0.790              1.409              0.864
 Vibration    13          0.814              1.347              0.777
 Vibration    14          0.826              1.319              0.741
 Vibration    15          0.850              1.262              0.671
 Vibration    16          0.889              1.175              0.579
 Vibration    17          0.914              1.120              0.526
 Vibration    18          0.935              1.079              0.489
 Vibration    19          0.943              1.062              0.474
 Vibration    20          0.963              1.021              0.441
 Vibration    21          0.980              0.990              0.416

 Optimization completed.
    -- Stationary point found.
 Normal termination of Gaussian 16 at Sun Feb 11 16:51:19 2024.
