 Gaussian 16, Revision A.03,
 Gaussian 16:  ES64L-G16RevA.03 25-Dec-2016

 --------------------------------------
 #P UB3LYP/6-311++G(d,p) nosym opt freq
 --------------------------------------

 --------
 Oxidized
 --------
 Symbolic Z-matrix:
 Charge =  0 Multiplicity = 1

 SCF Done:  E(UB3LYP) =  -610.483729707     A.U. after   15 cycles
 SCF Done:  E(UB3LYP) =  -610.507820304     A.U. after   14 cycles
 SCF Done:  E(UB3LYP) =  -610.514995211     A.U. after   14 cycles
 SCF Done:  E(UB3LYP) =  -610.517188206     A.U. after   13 cycles
 SCF Done:  E(UB3LYP) =  -610.517371004     A.U. after   13 cycles
 SCF Done:  E(UB3LYP) =  -610.517397485     A.U. after   10 cycles
 SCF Done:  E(UB3LYP) =  -610.517399965     A.U. after   10 cycles
 SCF Done:  E(UB3LYP) =  -610.517399796     A.U. after    9 cycles
 SCF Done:  E(UB3LYP) =  -610.517400286     A.U. after    9 cycles
 Optimization completed.
    -- Stationary point found.
 Normal termination of Gaussian 16 at Tue Dec 26 20:27:52 2023.

 ----------------------------------------------------------------------
 #P Geom=AllCheck Guess=TCheck SCRF=Check GenChk UB3LYP/6-311++G(d,p) F
 req
 ----------------------------------------------------------------------

 Structure from the checkpoint file:  "280.chk"
 --------
 Oxidized
 --------
 Charge =  0 Multiplicity = 1

                          Input orientation:
 ---------------------------------------------------------------------
 Center     Atomic      Atomic             Coordinates (Angstroms)
 Number     Number       Type             X           Y           Z
 ---------------------------------------------------------------------
      1          8           0        2.350149    1.629546    0.351976
      2          6           0        1.664744    0.487757    0.221054
      3          6           0        2.380723   -0.721053    0.255893
      4          6           0        1.715640   -1.927372    0.124565
      5          6           0        0.325577   -1.970779   -0.044631
      6          6           0       -0.396010   -0.787100   -0.081179
      7          6           0       -1.877845   -0.833803   -0.261520
      8          8           0       -2.490177   -1.882396   -0.379924
      9          6           0       -2.599712    0.462627   -0.293148
     10          6           0       -1.963333    1.634906   -0.166609
     11          6           0       -0.498460    1.711893    0.012861
     12          8           0        0.047222    2.818077    0.125500
     13          6           0        0.261261    0.460243    0.051012
     14          1           0        1.702957    2.372287    0.305545
     15          1           0        3.454965   -0.676027    0.387088
     16          1           0        2.280718   -2.852120    0.153290
     17          1           0       -0.200778   -2.910855   -0.147954
     18          1           0       -3.674169    0.397896   -0.425173
     19          1           0       -2.483473    2.586274   -0.188644
 ---------------------------------------------------------------------

 SCF Done:  E(UB3LYP) =  -610.517400286     A.U. after    1 cycles

 Alpha  occ. eigenvalues --  -19.16875 -19.15008 -19.13959 -10.29709 -10.28926
 Alpha  occ. eigenvalues --  -10.27551 -10.22448 -10.22347 -10.21889 -10.21534
 Alpha  occ. eigenvalues --  -10.21257 -10.20460 -10.20286  -1.09819  -1.07146
 Alpha  occ. eigenvalues --   -1.06975  -0.89782  -0.85201  -0.79125  -0.78018
 Alpha  occ. eigenvalues --   -0.71296  -0.66935  -0.65985  -0.61385  -0.55426
 Alpha  occ. eigenvalues --   -0.55075  -0.54325  -0.51810  -0.49216  -0.47429
 Alpha  occ. eigenvalues --   -0.47008  -0.46854  -0.44428  -0.44091  -0.43222
 Alpha  occ. eigenvalues --   -0.42059  -0.41377  -0.40212  -0.38521  -0.36501
 Alpha  occ. eigenvalues --   -0.32074  -0.29992  -0.29359  -0.28370  -0.25831
 Alpha virt. eigenvalues --   -0.13756  -0.05688  -0.04710  -0.00975  -0.00312
 Alpha virt. eigenvalues --    0.01059   0.01668   0.01876   0.02666   0.03974
 Alpha virt. eigenvalues --    0.04270   0.04834   0.04874   0.06168   0.06520

  Beta  occ. eigenvalues --  -19.16875 -19.15008 -19.13959 -10.29709 -10.28926
  Beta  occ. eigenvalues --  -10.27551 -10.22448 -10.22347 -10.21889 -10.21534
  Beta  occ. eigenvalues --  -10.21257 -10.20460 -10.20286  -1.09819  -1.07146
  Beta  occ. eigenvalues --   -1.06975  -0.89782  -0.85201  -0.79125  -0.78018
  Beta  occ. eigenvalues --   -0.71296  -0.66935  -0.65985  -0.61385  -0.55426
  Beta  occ. eigenvalues --   -0.55075  -0.54325  -0.51810  -0.49216  -0.47429
  Beta  occ. eigenvalues --   -0.47008  -0.46854  -0.44428  -0.44091  -0.43222
  Beta  occ. eigenvalues --   -0.42059  -0.41377  -0.40212  -0.38521  -0.36501
  Beta  occ. eigenvalues --   -0.32074  -0.29992  -0.29359  -0.28370  -0.25831
  Beta virt. eigenvalues --   -0.13756  -0.05688  -0.04710  -0.00975  -0.00312
  Beta virt. eigenvalues --    0.01059   0.01668   0.01876   0.02666   0.03974
  Beta virt. eigenvalues --    0.04270   0.04834   0.04874   0.06168   0.06520

 Mulliken charges and spin densities:
               1          2
     1  O   -0.273138  -0.000000
     2  C   -0.122177   0.000000
     3  C   -0.015530   0.000000
     4  C   -0.255007   0.000000
     5  C   -0.035894   0.000000
     6  C    0.418018  -0.000000
     7  C   -0.488769  -0.000000
     8  O   -0.231870  -0.000000
     9  C    0.011934  -0.000000
    10  C   -0.072548   0.000000
    11  C   -0.460582  -0.000000
    12  O   -0.302281   0.000000
    13  C    0.483047  -0.000000
    14  H    0.333997   0.000000
    15  H    0.199527   0.000000
    16  H    0.189606   0.000000
    17  H    0.181686  -0.000000
    18  H    0.219379   0.000000
    19  H    0.220603   0.000000
 Sum of Mulliken charges =  -0.00000   0.00000

 Dipole moment (field-independent basis, Debye):
    X=              0.1571    Y=             -0.4811    Z=             -0.0012  Tot=              0.5061
 Quadrupole moment (field-independent basis, Debye-Ang):
   XX=            -72.3678   YY=            -79.2647   ZZ=            -75.5860
   XY=            -13.7148   XZ=             -0.2092   YZ=             -1.8123

  Exact polarizability: 161.536   0.589 157.338  12.061   4.147  63.153
 Approx polarizability: 269.232  26.841 298.394  21.931  11.818  99.656

                      1                      2                      3
                      A                      A                      A
 Frequencies --     78.3281               116.6816               178.2414
 Red. masses --      6.8536                 8.0555                 5.4294
 Frc consts  --      0.0248                 0.0646                 0.1016
 IR Inten    --      8.8211                 0.6226                 0.0251

                      4                      5                      6
                      A                      A                      A
 Frequencies --    237.2048               276.8061               279.4918
 Red. masses --      5.3130                 4.3915                 7.1872
 Frc consts  --      0.1761                 0.1983                 0.3308
 IR Inten    --      0.1365                 0.1012                 0.8813

                      7                      8                      9
                      A                      A                      A
 Frequencies --    376.8338               416.2747               452.2969
 Red. masses --      8.3762                 9.7261                10.9589
 Frc consts  --      0.7008                 0.9930                 1.3209
 IR Inten    --      9.9807                 1.3724                15.7422

                     10                     11                     12
                      A                      A                      A
 Frequencies --    458.6972               470.6678               523.0486
 Red. masses --      4.2854                 6.1812                 3.7566
 Frc consts  --      0.5312                 0.8068                 0.6055
 IR Inten    --      0.0801                11.6751                 0.3853

                     13                     14                     15
                      A                      A                      A
 Frequencies --    529.0131               620.3745               627.4602
 Red. masses --      7.2732                 4.6496                 2.4802
 Frc consts  --      1.1993                 1.0543                 0.5753
 IR Inten    --      1.3535                 0.9459                 1.9359

                     16                     17                     18
                      A                      A                      A
 Frequencies --    633.4173               687.1052               757.0956
 Red. masses --      6.9924                 3.9237                 3.8471
 Frc consts  --      1.6529                 1.0914                 1.2992
 IR Inten    --     24.5049                 4.8406                21.3554

                     19                     20                     21
                      A                      A                      A
 Frequencies --    763.1152               787.9182               795.2193
 Red. masses --      6.8216                 5.4804                 1.2725
 Frc consts  --      2.3405                 2.0046                 0.4741
 IR Inten    --      1.8056                 0.3410               136.2915

                     22                     23                     24
                      A                      A                      A
 Frequencies --    820.1798               870.6133               934.1887
 Red. masses --      1.3526                 1.9849                 1.4180
 Frc consts  --      0.5361                 0.8864                 0.7291
 IR Inten    --      7.7705                31.9496                 0.2910

                     25                     26                     27
                      A                      A                      A
 Frequencies --    951.2983              1004.1397              1015.4620
 Red. masses --      6.6382                 1.3151                 1.2504
 Frc consts  --      3.5394                 0.7812                 0.7597
 IR Inten    --      4.8060                 0.2346                 0.0031

                     28                     29                     30
                      A                      A                      A
 Frequencies --   1056.4933              1095.7557              1114.4776
 Red. masses --      3.6772                 1.7013                 2.2236
 Frc consts  --      2.4183                 1.2035                 1.6272
 IR Inten    --      8.9891                21.8330                46.8032

                     31                     32                     33
                      A                      A                      A
 Frequencies --   1174.0010              1201.4696              1256.7903
 Red. masses --      1.2761                 1.4149                 2.2102
 Frc consts  --      1.0363                 1.2034                 2.0569
 IR Inten    --     37.5801                 0.2944               132.9374

                     34                     35                     36
                      A                      A                      A
 Frequencies --   1304.9433              1338.2468              1373.2689
 Red. masses --      2.7983                 3.6913                 2.1717
 Frc consts  --      2.8075                 3.8949                 2.4130
 IR Inten    --    207.9164                26.6041                98.8285

                     37                     38                     39
                      A                      A                      A
 Frequencies --   1396.2481              1403.5775              1484.9730
 Red. masses --      3.9746                 2.5662                 2.5648
 Frc consts  --      4.5653                 2.9786                 3.3323
 IR Inten    --     35.6727                66.5543                86.6272

                     40                     41                     42
                      A                      A                      A
 Frequencies --   1506.1766              1609.0938              1631.4125
 Red. masses --      2.8202                 3.9977                 6.3870
 Frc consts  --      3.7695                 6.0986                10.0155
 IR Inten    --     68.3095                49.7777                 3.7080

                     43                     44                     45
                      A                      A                      A
 Frequencies --   1647.9775              1689.3827              1725.0388
 Red. masses --      7.7683                 7.6688                10.6334
 Frc consts  --     12.4302                12.8953                18.6432
 IR Inten    --    148.2312               278.2444               175.8277

                     46                     47                     48
                      A                      A                      A
 Frequencies --   3176.1913              3176.8920              3193.5344
 Red. masses --      1.0873                 1.0883                 1.0988
 Frc consts  --      6.4629                 6.4717                 6.6026
 IR Inten    --      0.6676                 6.3853                 3.8458

                     49                     50                     51
                      A                      A                      A
 Frequencies --   3198.2385              3206.8420              3370.2860
 Red. masses --      1.0931                 1.0938                 1.0678
 Frc consts  --      6.5876                 6.6276                 7.1464
 IR Inten    --      2.1019                 2.2184               185.7374

 - Thermochemistry -
 -------------------
 Temperature   298.150 Kelvin.  Pressure   1.00000 Atm.
 Atom     1 has atomic number  8 and mass  15.99491

 Molecular mass:   174.03169 amu.
 Principal axes and moments of inertia in atomic units:
                           1         2         3
     Eigenvalues --  1546.267811990.664563536.93236
           X            0.95354  -0.27660  -0.11938
           Y            0.27346   0.96096  -0.04219
           Z            0.12639   0.00759   0.99195
 This molecule is an asymmetric top.
 Rotational symmetry number  1.
 Warning -- assumption of classical behavior for rotation
           may cause significant error
 Rotational temperatures (Kelvin)      0.05601     0.04351     0.02449
 Rotational constants (GHZ):           1.16716     0.90660     0.51026
 Zero-point vibrational energy     358834.7 (Joules/Mol)
                                   85.76356 (Kcal/Mol)
 Warning -- explicit consideration of  14 degrees of freedom as
           vibrations may cause significant error
 Vibrational temperatures:    112.70   167.88   256.45   341.28   398.26
          (Kelvin)            402.13   542.18   598.93   650.75   659.96
                              677.19   752.55   761.13   892.58   902.78
                              911.35   988.59  1089.29  1097.95  1133.64
                             1144.14  1180.06  1252.62  1344.09  1368.71
                             1444.73  1461.02  1520.06  1576.55  1603.48
                             1689.13  1728.65  1808.24  1877.52  1925.44
                             1975.83  2008.89  2019.44  2136.55  2167.05
                             2315.13  2347.24  2371.07  2430.64  2481.95
                             4569.83  4570.84  4594.78  4601.55  4613.93
                             4849.09

 Zero-point correction=                           0.136673 (Hartree/Particle)
 Thermal correction to Energy=                    0.146173
 Thermal correction to Enthalpy=                  0.147117
 Thermal correction to Gibbs Free Energy=         0.101686
 Sum of electronic and zero-point Energies=           -610.380727
 Sum of electronic and thermal Energies=              -610.371228
 Sum of electronic and thermal Enthalpies=            -610.370283
 Sum of electronic and thermal Free Energies=         -610.415715

                     E (Thermal)             CV                S
                      KCal/Mol        Cal/Mol-Kelvin    Cal/Mol-Kelvin
 Total                   91.725             38.058             95.618
 Electronic               0.000              0.000              0.000
 Translational            0.889              2.981             41.370
 Rotational               0.889              2.981             30.766
 Vibrational             89.947             32.097             23.483
 Vibration     1          0.600              1.964              3.932
 Vibration     2          0.608              1.936              3.155
 Vibration     3          0.629              1.869              2.347
 Vibration     4          0.656              1.784              1.824
 Vibration     5          0.678              1.716              1.553
 Vibration     6          0.680              1.712              1.537
 Vibration     7          0.747              1.519              1.052
 Vibration     8          0.779              1.435              0.905
 Vibration     9          0.811              1.356              0.789
 Vibration    10          0.817              1.342              0.770
 Vibration    11          0.828              1.315              0.736
 Vibration    12          0.878              1.199              0.603
 Vibration    13          0.884              1.186              0.589
 Vibration    14          0.980              0.989              0.416

 Optimization completed.
    -- Stationary point found.
 Normal termination of Gaussian 16 at Tue Dec 26 20:47:29 2023.
