 Gaussian 16, Revision A.03,
 Gaussian 16:  ES64L-G16RevA.03 25-Dec-2016

 --------------------------------------
 #P UB3LYP/6-311++G(d,p) nosym opt freq
 --------------------------------------

 -------
 Reduced
 -------
 Symbolic Z-matrix:
 Charge = -2 Multiplicity = 1

 SCF Done:  E(UB3LYP) =  -1608.11686175     A.U. after   32 cycles
 SCF Done:  E(UB3LYP) =  -1608.15466871     A.U. after   25 cycles
 SCF Done:  E(UB3LYP) =  -1608.16414440     A.U. after   18 cycles
 SCF Done:  E(UB3LYP) =  -1608.16558122     A.U. after   16 cycles
 SCF Done:  E(UB3LYP) =  -1608.16567063     A.U. after   14 cycles
 SCF Done:  E(UB3LYP) =  -1608.16568653     A.U. after   14 cycles
 SCF Done:  E(UB3LYP) =  -1608.16569094     A.U. after   12 cycles
 Optimization completed.
    -- Stationary point found.
 Normal termination of Gaussian 16 at Thu Dec 21 06:20:13 2023.

 ----------------------------------------------------------------------
 #P Geom=AllCheck Guess=TCheck SCRF=Check GenChk UB3LYP/6-311++G(d,p) F
 req
 ----------------------------------------------------------------------

 Structure from the checkpoint file:  "122-an.chk"
 -------
 Reduced
 -------
 Charge = -2 Multiplicity = 1

                          Input orientation:
 ---------------------------------------------------------------------
 Center     Atomic      Atomic             Coordinates (Angstroms)
 Number     Number       Type             X           Y           Z
 ---------------------------------------------------------------------
      1         17           0       -2.552756    2.788224    1.815786
      2          6           0       -2.401154    1.176846    1.025911
      3          6           0       -3.605119    0.507328    0.945362
      4          6           0       -3.652769   -0.779134    0.347733
      5          6           0       -2.496019   -1.332828   -0.139700
      6          6           0       -1.246662   -0.662396   -0.067768
      7          6           0       -0.106100   -1.348825   -0.615090
      8          8           0       -0.198399   -2.521240   -1.150721
      9          6           0        1.144120   -0.641315   -0.526586
     10          6           0        2.289268   -1.290502   -1.058214
     11          6           0        3.534749   -0.715815   -1.031422
     12          6           0        3.689889    0.571356   -0.453764
     13          6           0        2.590009    1.220539    0.068892
     14         17           0        2.996103    2.836572    0.752397
     15          6           0        1.266595    0.688247    0.077284
     16          6           0        0.109648    1.389755    0.635688
     17          8           0        0.200244    2.539294    1.160989
     18          6           0       -1.159703    0.666976    0.542654
     19          1           0       -4.500107    0.973898    1.340439
     20          1           0       -4.601205   -1.308752    0.283293
     21          1           0       -2.474864   -2.312055   -0.605937
     22          1           0        2.113749   -2.271340   -1.487061
     23          1           0        4.401009   -1.229114   -1.444101
     24          1           0        4.659476    1.054281   -0.416064
 ---------------------------------------------------------------------

 SCF Done:  E(UB3LYP) =  -1608.16569094     A.U. after    2 cycles

 Alpha  occ. eigenvalues -- -101.30419-101.30419 -18.77838 -18.77517  -9.99113
 Alpha  occ. eigenvalues --   -9.99113  -9.95554  -9.93718  -9.93524  -9.93524
 Alpha  occ. eigenvalues --   -9.93435  -9.93435  -9.92447  -9.92446  -9.92215
 Alpha  occ. eigenvalues --   -9.92214  -9.91152  -9.91151  -9.21873  -9.21872
 Alpha  occ. eigenvalues --   -6.98300  -6.98300  -6.97409  -6.97409  -6.97310
 Alpha  occ. eigenvalues --   -6.97310  -0.71023  -0.69269  -0.63267  -0.63031
 Alpha  occ. eigenvalues --   -0.58253  -0.57839  -0.52993  -0.48959  -0.48608
 Alpha  occ. eigenvalues --   -0.48357  -0.41201  -0.38705  -0.37489  -0.32743
 Alpha  occ. eigenvalues --   -0.30209  -0.28383  -0.27476  -0.23079  -0.21939
 Alpha  occ. eigenvalues --   -0.21379  -0.20874  -0.18120  -0.18100  -0.16178
 Alpha  occ. eigenvalues --   -0.16122  -0.15309  -0.14279  -0.14116  -0.11882
 Alpha  occ. eigenvalues --   -0.10977  -0.10772  -0.09864  -0.08636  -0.08557
 Alpha  occ. eigenvalues --   -0.07997  -0.07463  -0.06521  -0.05934  -0.00322
 Alpha  occ. eigenvalues --    0.00137   0.00487   0.01448   0.04252   0.05274
 Alpha  occ. eigenvalues --    0.12960
 Alpha virt. eigenvalues --    0.16288   0.16318   0.18228   0.18294   0.19416
 Alpha virt. eigenvalues --    0.20278   0.21463   0.21550   0.21683   0.22531
 Alpha virt. eigenvalues --    0.23274   0.24850   0.25492   0.26060   0.26484

  Beta  occ. eigenvalues -- -101.30419-101.30419 -18.77838 -18.77517  -9.99113
  Beta  occ. eigenvalues --   -9.99113  -9.95554  -9.93718  -9.93524  -9.93524
  Beta  occ. eigenvalues --   -9.93435  -9.93435  -9.92447  -9.92446  -9.92215
  Beta  occ. eigenvalues --   -9.92214  -9.91152  -9.91151  -9.21873  -9.21872
  Beta  occ. eigenvalues --   -6.98300  -6.98300  -6.97409  -6.97409  -6.97310
  Beta  occ. eigenvalues --   -6.97310  -0.71023  -0.69269  -0.63267  -0.63031
  Beta  occ. eigenvalues --   -0.58253  -0.57839  -0.52993  -0.48959  -0.48608
  Beta  occ. eigenvalues --   -0.48357  -0.41201  -0.38705  -0.37489  -0.32743
  Beta  occ. eigenvalues --   -0.30209  -0.28383  -0.27476  -0.23079  -0.21939
  Beta  occ. eigenvalues --   -0.21379  -0.20874  -0.18120  -0.18100  -0.16178
  Beta  occ. eigenvalues --   -0.16122  -0.15309  -0.14279  -0.14116  -0.11882
  Beta  occ. eigenvalues --   -0.10977  -0.10772  -0.09864  -0.08636  -0.08557
  Beta  occ. eigenvalues --   -0.07997  -0.07463  -0.06521  -0.05934  -0.00322
  Beta  occ. eigenvalues --    0.00137   0.00487   0.01448   0.04252   0.05274
  Beta  occ. eigenvalues --    0.12960
  Beta virt. eigenvalues --    0.16288   0.16318   0.18228   0.18294   0.19416
  Beta virt. eigenvalues --    0.20278   0.21463   0.21550   0.21683   0.22531
  Beta virt. eigenvalues --    0.23274   0.24850   0.25492   0.26060   0.26484

 Mulliken charges and spin densities:
               1          2
     1  Cl   0.280915   0.000000
     2  C    1.267324  -0.000000
     3  C   -0.272168   0.000000
     4  C   -0.667955  -0.000000
     5  C    0.282476   0.000000
     6  C    0.295179   0.000000
     7  C   -1.299762  -0.000000
     8  O   -0.506174   0.000000
     9  C    0.294934   0.000000
    10  C    0.282653   0.000000
    11  C   -0.668083  -0.000000
    12  C   -0.272235  -0.000000
    13  C    1.267462   0.000000
    14  Cl   0.280983  -0.000000
    15  C   -0.206884  -0.000000
    16  C   -2.533306  -0.000000
    17  O   -0.255416  -0.000000
    18  C   -0.206878  -0.000000
    19  H    0.101325   0.000000
    20  H    0.075534  -0.000000
    21  H    0.141594   0.000000
    22  H    0.141623   0.000000
    23  H    0.075524  -0.000000
    24  H    0.101337  -0.000000
 Sum of Mulliken charges =  -2.00000  -0.00000

 Dipole moment (field-independent basis, Debye):
    X=             -0.2977    Y=             -3.7645    Z=             -1.7231  Tot=              4.1508
 Quadrupole moment (field-independent basis, Debye-Ang):
   XX=           -173.6637   YY=           -180.5982   ZZ=           -142.0736
   XY=             -4.3754   XZ=              6.5071   YZ=            -23.0784

  Exact polarizability: 428.546  12.725 259.997 -52.199  58.141 169.253
 Approx polarizability: 767.390  26.966 475.912 -99.045 126.369 276.193

 ******    1 imaginary frequencies (negative Signs) ******

                      1                      2                      3
                      A                      A                      A
 Frequencies --    -37.8535                29.3510                60.5660
 Red. masses --     15.9388                10.2570                 6.9952
 Frc consts  --      0.0135                 0.0052                 0.0151
 IR Inten    --      3.7345                 0.0000                 2.8099

                      4                      5                      6
                      A                      A                      A
 Frequencies --    144.2180               162.9841               185.1584
 Red. masses --     19.8176                 7.9647                 4.5469
 Frc consts  --      0.2429                 0.1247                 0.0918
 IR Inten    --      4.2498                 2.4214                 0.0000

                      7                      8                      9
                      A                      A                      A
 Frequencies --    206.2958               226.0854               262.7841
 Red. masses --      4.8999                17.7576                 5.8277
 Frc consts  --      0.1229                 0.5348                 0.2371
 IR Inten    --      0.3424                 1.4425                 0.0000

                     10                     11                     12
                      A                      A                      A
 Frequencies --    297.2495               320.6385               371.6926
 Red. masses --      8.6021                15.4897                 7.9216
 Frc consts  --      0.4478                 0.9383                 0.6448
 IR Inten    --      0.2048                 3.5041                 1.7450

                     13                     14                     15
                      A                      A                      A
 Frequencies --    378.1017               378.6278               383.6868
 Red. masses --     10.8195                 9.0350                 7.7078
 Frc consts  --      0.9113                 0.7631                 0.6686
 IR Inten    --      0.2906                 6.0197                 8.2746

                     16                     17                     18
                      A                      A                      A
 Frequencies --    420.2458               475.0425               483.3928
 Red. masses --      8.7418                 8.9049                 4.2780
 Frc consts  --      0.9096                 1.1840                 0.5890
 IR Inten    --      3.5643                14.0450                 0.0000

                     19                     20                     21
                      A                      A                      A
 Frequencies --    496.6442               501.0917               558.7547
 Red. masses --      5.3863                11.9963                 5.1946
 Frc consts  --      0.7828                 1.7747                 0.9555
 IR Inten    --      2.5821                 2.8120                 0.0000

                     22                     23                     24
                      A                      A                      A
 Frequencies --    606.6511               608.3511               674.9787
 Red. masses --      6.5194                 4.5434                 7.6667
 Frc consts  --      1.4136                 0.9907                 2.0580
 IR Inten    --     42.7295                 1.7204                20.8618

                     25                     26                     27
                      A                      A                      A
 Frequencies --    687.5816               696.3235               707.2722
 Red. masses --      2.5121                 1.5178                 8.6647
 Frc consts  --      0.6997                 0.4336                 2.5538
 IR Inten    --      0.0001               102.9629                 6.8859

                     28                     29                     30
                      A                      A                      A
 Frequencies --    736.2247               743.1206               745.2187
 Red. masses --      1.8315                 2.8568                 6.8121
 Frc consts  --      0.5849                 0.9295                 2.2290
 IR Inten    --      0.0006                18.4145               105.8005

                     31                     32                     33
                      A                      A                      A
 Frequencies --    788.0498               795.8964               817.6613
 Red. masses --      1.7983                 1.3437                 4.3104
 Frc consts  --      0.6580                 0.5015                 1.6979
 IR Inten    --      0.9113                 0.0001                 1.8188

                     34                     35                     36
                      A                      A                      A
 Frequencies --    834.4461               922.8798               951.0291
 Red. masses --      8.4219                 6.8470                 8.3195
 Frc consts  --      3.4551                 3.4359                 4.4334
 IR Inten    --     64.4149                 0.7183                 2.4368

                     37                     38                     39
                      A                      A                      A
 Frequencies --    960.0258               963.8554              1059.9029
 Red. masses --      1.2756                 1.3140                 2.1830
 Frc consts  --      0.6927                 0.7192                 1.4449
 IR Inten    --      0.0009                 3.2551               339.0125

                     40                     41                     42
                      A                      A                      A
 Frequencies --   1061.6832              1087.9936              1097.8518
 Red. masses --      2.3020                 4.0973                 1.9897
 Frc consts  --      1.5288                 2.8576                 1.4130
 IR Inten    --      6.8532                14.9204                 9.3817

                     43                     44                     45
                      A                      A                      A
 Frequencies --   1113.9665              1155.1337              1178.2641
 Red. masses --      2.6420                 1.3765                 2.6602
 Frc consts  --      1.9317                 1.0822                 2.1760
 IR Inten    --    308.5703                 9.7592                 1.8816

                     46                     47                     48
                      A                      A                      A
 Frequencies --   1198.9443              1221.5676              1301.6584
 Red. masses --      2.0370                 2.7229                 6.8957
 Frc consts  --      1.7252                 2.3939                 6.8837
 IR Inten    --     61.0852                67.3675               235.4543

                     49                     50                     51
                      A                      A                      A
 Frequencies --   1308.8543              1334.1672              1340.0591
 Red. masses --      3.9835                 2.3916                 3.3157
 Frc consts  --      4.0206                 2.5082                 3.5081
 IR Inten    --    378.4679                37.1764               628.0452

                     52                     53                     54
                      A                      A                      A
 Frequencies --   1404.6693              1437.1166              1455.3360
 Red. masses --      3.6512                 2.9225                 4.2386
 Frc consts  --      4.2446                 3.5562                 5.2893
 IR Inten    --    109.7915               154.6168               100.2070

                     55                     56                     57
                      A                      A                      A
 Frequencies --   1456.8126              1501.7124              1510.0024
 Red. masses --      5.6604                 6.4241                 5.3810
 Frc consts  --      7.0779                 8.5356                 7.2288
 IR Inten    --    327.8798               377.0557                82.2523

                     58                     59                     60
                      A                      A                      A
 Frequencies --   1558.9717              1579.5723              1584.9360
 Red. masses --      6.5676                 5.1738                 6.8849
 Frc consts  --      9.4044                 7.6056                10.1899
 IR Inten    --     56.0050                17.5944                30.8455

                     61                     62                     63
                      A                      A                      A
 Frequencies --   3108.6806              3108.7760              3163.9927
 Red. masses --      1.0853                 1.0858                 1.0900
 Frc consts  --      6.1797                 6.1826                 6.4291
 IR Inten    --     70.8273                84.8317                31.6786

                     64                     65                     66
                      A                      A                      A
 Frequencies --   3164.1592              3168.7782              3169.6864
 Red. masses --      1.0899                 1.0919                 1.0921
 Frc consts  --      6.4291                 6.4600                 6.4645
 IR Inten    --     22.8683                70.7663                10.7781

 - Thermochemistry -
 -------------------
 Temperature   298.150 Kelvin.  Pressure   1.00000 Atm.
 Atom     1 has atomic number 17 and mass  34.96885

 Molecular mass:   275.97448 amu.
 Principal axes and moments of inertia in atomic units:
                           1         2         3
     Eigenvalues --  3522.018695990.231489512.24951
           X            0.98207   0.07150   0.17445
           Y            0.00861   0.90733  -0.42034
           Z           -0.18834   0.41430   0.89044
 This molecule is an asymmetric top.
 Rotational symmetry number  1.
 Warning -- assumption of classical behavior for rotation
           may cause significant error
 Rotational temperatures (Kelvin)      0.02459     0.01446     0.00911
 Rotational constants (GHZ):           0.51242     0.30128     0.18973
    1 imaginary frequencies ignored.
 Zero-point vibrational energy     403233.8 (Joules/Mol)
                                   96.37519 (Kcal/Mol)
 Warning -- explicit consideration of  22 degrees of freedom as
           vibrations may cause significant error
 Vibrational temperatures:     42.23    87.14   207.50   234.50   266.40
          (Kelvin)            296.81   325.29   378.09   427.68   461.33
                              534.78   544.00   544.76   552.04   604.64
                              683.48   695.49   714.56   720.96   803.92
                              872.84   875.28   971.14   989.28  1001.85
                             1017.61  1059.26  1069.18  1072.20  1133.83
                             1145.12  1176.43  1200.58  1327.82  1368.32
                             1381.26  1386.77  1524.96  1527.53  1565.38
                             1579.56  1602.75  1661.98  1695.26  1725.01
                             1757.56  1872.80  1883.15  1919.57  1928.05
                             2021.01  2067.69  2093.90  2096.03  2160.63
                             2172.56  2243.01  2272.65  2280.37  4472.70
                             4472.84  4552.28  4552.52  4559.17  4560.47

 Zero-point correction=                           0.153584 (Hartree/Particle)
 Thermal correction to Energy=                    0.166897
 Thermal correction to Enthalpy=                  0.167842
 Thermal correction to Gibbs Free Energy=         0.112784
 Sum of electronic and zero-point Energies=          -1608.012107
 Sum of electronic and thermal Energies=             -1607.998794
 Sum of electronic and thermal Enthalpies=           -1607.997849
 Sum of electronic and thermal Free Energies=        -1608.052907

                     E (Thermal)             CV                S
                      KCal/Mol        Cal/Mol-Kelvin    Cal/Mol-Kelvin
 Total                  104.730             53.503            115.878
 Electronic               0.000              0.000              0.000
 Translational            0.889              2.981             42.744
 Rotational               0.889              2.981             33.661
 Vibrational            102.952             47.541             39.472
 Vibration     1          0.593              1.984              5.873
 Vibration     2          0.597              1.973              4.439
 Vibration     3          0.616              1.909              2.747
 Vibration     4          0.623              1.888              2.515
 Vibration     5          0.631              1.860              2.276
 Vibration     6          0.641              1.831              2.076
 Vibration     7          0.650              1.801              1.910
 Vibration     8          0.670              1.741              1.643
 Vibration     9          0.691              1.679              1.432
 Vibration    10          0.706              1.634              1.307
 Vibration    11          0.743              1.530              1.073
 Vibration    12          0.748              1.517              1.047
 Vibration    13          0.749              1.516              1.045
 Vibration    14          0.753              1.505              1.025
 Vibration    15          0.783              1.426              0.891
 Vibration    16          0.832              1.305              0.724
 Vibration    17          0.840              1.287              0.701
 Vibration    18          0.852              1.257              0.667
 Vibration    19          0.856              1.248              0.655
 Vibration    20          0.914              1.121              0.526
 Vibration    21          0.965              1.018              0.438
 Vibration    22          0.967              1.014              0.436

                           ! Non-Optimized Parameters !
 Normal termination of Gaussian 16 at Thu Dec 21 07:06:44 2023.
