 Q-Chem 5.4, Q-Chem, Inc., Pleasanton, CA (2021)
 Q-Chem 5.4.0 for Intel X86 EM64T Linux

User input:
--------------------------------------------------------------
$molecule
0 1
C                 -1.8409430000      1.9087610000     -5.1580670000
C                 -1.7587510000      0.5834440000     -5.5610990000
C                 -1.3482190000     -0.4008790000     -4.6545220000
C                 -1.5141790000      2.2666880000     -3.8437470000
C                 -1.1033480000      1.2811110000     -2.9353400000
C                 -1.0227980000     -0.0544990000     -3.3506810000
C                 -1.6050830000      3.6899720000     -3.4339000000
C                 -0.7532250000      1.6280250000     -1.5348260000
C                 -1.2566440000      4.0408800000     -2.0530100000
C                 -0.8442370000      3.0265670000     -1.1169430000
C                 -1.3416620000      5.3926250000     -1.6442490000
C                 -1.0223220000      5.7063290000     -0.2962680000
C                 -0.6343970000      4.7503000000      0.5974120000
C                 -0.5257690000      3.3792340000      0.2245390000
O                 -1.9720130000      4.5348250000     -4.2653250000
O                 -0.3971720000      0.7183280000     -0.7647090000
N                 -1.6941170000      6.4085570000     -2.4812280000
N                 -0.1294020000      2.4600210000      1.1436340000
C                  0.2057330000      2.7547330000      2.5197590000
H                 -2.1547800000      2.6884600000     -5.8404190000
H                 -2.0125230000      0.3105460000     -6.5793460000
H                 -1.2842570000     -1.4360110000     -4.9710510000
H                 -0.7031920000     -0.7981160000     -2.6318270000
H                 -1.0876170000      6.7417660000      0.0236410000
H                 -0.4020810000      5.0441120000      1.6124510000
H                 -1.9910580000      6.1649010000     -3.4190860000
H                 -1.8565720000      7.3269190000     -2.1054940000
H                 -0.0803420000      1.5070500000      0.7921950000
H                 -0.6406340000      3.1818620000      3.0712680000
H                  1.0536800000      3.4454440000      2.6018980000
H                  0.4860740000      1.8216140000      3.0078210000
$end
$rem
MAX_SCF_CYCLES=200
BASIS  =  6-311++G(d,p)
GUI  =  2
JOB_TYPE  =  SP
METHOD  =  B3LYP
SOLVENT_METHOD = PCM
$end
$pcm
theory = CPCM
$end
$solvent
dielectric 37.219
opticaldielectric 1.43
$end

--------------------------------------------------------------

             Standard Nuclear Orientation (Angstroms)
    I     Atom           X                Y                Z
 ----------------------------------------------------------------
    1      C      -1.8409430000     1.9087610000    -5.1580670000
    2      C      -1.7587510000     0.5834440000    -5.5610990000
    3      C      -1.3482190000    -0.4008790000    -4.6545220000
    4      C      -1.5141790000     2.2666880000    -3.8437470000
    5      C      -1.1033480000     1.2811110000    -2.9353400000
    6      C      -1.0227980000    -0.0544990000    -3.3506810000
    7      C      -1.6050830000     3.6899720000    -3.4339000000
    8      C      -0.7532250000     1.6280250000    -1.5348260000
    9      C      -1.2566440000     4.0408800000    -2.0530100000
   10      C      -0.8442370000     3.0265670000    -1.1169430000
   11      C      -1.3416620000     5.3926250000    -1.6442490000
   12      C      -1.0223220000     5.7063290000    -0.2962680000
   13      C      -0.6343970000     4.7503000000     0.5974120000
   14      C      -0.5257690000     3.3792340000     0.2245390000
   15      O      -1.9720130000     4.5348250000    -4.2653250000
   16      O      -0.3971720000     0.7183280000    -0.7647090000
   17      N      -1.6941170000     6.4085570000    -2.4812280000
   18      N      -0.1294020000     2.4600210000     1.1436340000
   19      C       0.2057330000     2.7547330000     2.5197590000
   20      H      -2.1547800000     2.6884600000    -5.8404190000
   21      H      -2.0125230000     0.3105460000    -6.5793460000
   22      H      -1.2842570000    -1.4360110000    -4.9710510000
   23      H      -0.7031920000    -0.7981160000    -2.6318270000
   24      H      -1.0876170000     6.7417660000     0.0236410000
   25      H      -0.4020810000     5.0441120000     1.6124510000
   26      H      -1.9910580000     6.1649010000    -3.4190860000
   27      H      -1.8565720000     7.3269190000    -2.1054940000
   28      H      -0.0803420000     1.5070500000     0.7921950000
   29      H      -0.6406340000     3.1818620000     3.0712680000
   30      H       1.0536800000     3.4454440000     2.6018980000
   31      H       0.4860740000     1.8216140000     3.0078210000
 ----------------------------------------------------------------

    9    -839.0517359243      3.01e-06  Convergence criterion met
 Total energy in the final basis set =     -839.0517359243

                    Orbital Energies (a.u.)
 --------------------------------------------------------------

 Alpha MOs
 -- Occupied --
-19.1124 -19.1113 -14.3361 -14.3290 -10.2652 -10.2635 -10.2393 -10.2379
-10.2001 -10.1965 -10.1958 -10.1950 -10.1937 -10.1934 -10.1928 -10.1891
-10.1886 -10.1873 -10.1870  -1.0469  -1.0443  -0.9521  -0.9362  -0.8802
 -0.8508  -0.8034  -0.7688  -0.7646  -0.7528  -0.6962  -0.6809  -0.6555
 -0.6419  -0.6058  -0.5877  -0.5669  -0.5472  -0.5348  -0.5200  -0.5004
 -0.4844  -0.4820  -0.4737  -0.4560  -0.4546  -0.4440  -0.4413  -0.4391
 -0.4360  -0.4235  -0.4083  -0.4055  -0.3983  -0.3963  -0.3814  -0.3690
 -0.3647  -0.3584  -0.3474  -0.2858  -0.2767  -0.2743  -0.2702  -0.2657
 -0.2631  -0.1958

          Ground-State Mulliken Net Atomic Charges

     Atom                 Charge (a.u.)
  ----------------------------------------
      1 C                     0.135375
      2 C                    -0.599770
      3 C                    -0.562202
      4 C                     0.089642
      5 C                     0.159965
      6 C                     0.061226
      7 C                    -0.309686
      8 C                    -0.131406
      9 C                     0.633683
     10 C                     0.238873
     11 C                     0.122730
     12 C                    -0.381752
     13 C                    -0.187411
     14 C                    -0.310704
     15 O                    -0.362634
     16 O                    -0.372577
     17 N                    -0.454040
     18 N                    -0.275518
     19 C                    -0.386359
     20 H                     0.197057
     21 H                     0.212454
     22 H                     0.215123
     23 H                     0.191031
     24 H                     0.230059
     25 H                     0.232805
     26 H                     0.343279
     27 H                     0.318615
     28 H                     0.416802
     29 H                     0.176362
     30 H                     0.176180
     31 H                     0.182796
  ----------------------------------------
  Sum of atomic charges =     0.000000

                    Cartesian Multipole Moments
 -----------------------------------------------------------------
    Charge (ESU x 10^10)
                 0.0000
    Dipole Moment (Debye)
         X       0.3265      Y       3.3430      Z       4.3336
       Tot       5.4829
    Quadrupole Moments (Debye-Ang)
        XX    -114.6863     XY      -2.6838     YY     -71.4316
        XZ      -0.3233     YZ      24.2643     ZZ    -105.9525

 Total job time:  75.92s(wall), 489.46s(cpu)
        *  Thank you very much for using Q-Chem.  Have a nice day.  *
