 Gaussian 16, Revision A.03,
 Gaussian 16:  ES64L-G16RevA.03 25-Dec-2016

 ----------------------------------------------------------------
 #P UB3LYP/6-311++G(d,p) SCRF=(PCM,Solvent=n,n-DiMethylFormamide)
 ----------------------------------------------------------------

 -------
 Reduced
 -------
 Symbolic Z-matrix:
 Charge = -2 Multiplicity = 1

                         Standard orientation:
 ---------------------------------------------------------------------
 Center     Atomic      Atomic             Coordinates (Angstroms)
 Number     Number       Type             X           Y           Z
 ---------------------------------------------------------------------
      1          6           0       -7.233332   -1.215412    0.185524
      2          6           0       -8.358273   -1.061620    1.088358
      3          6           0       -8.970801    0.166764    1.281742
      4          6           0       -8.525210    1.363964    0.590028
      5          6           0       -7.392058    1.212220   -0.307825
      6          6           0       -6.788489   -0.020726   -0.505637
      7          8           0       -6.658280   -2.342839   -0.001320
      8          8           0       -9.101313    2.492738    0.761962
      9          6           0       -5.626189   -0.208436   -1.468279
     10          6           0       -6.915471    2.459977   -1.014667
     11          6           0       -8.835203   -2.298174    1.811074
     12          6           0      -10.138495    0.314352    2.227520
     13          6           0       -4.284308   -0.135368   -0.784222
     14          1           0       -5.688846    0.501512   -2.296278
     15          1           0       -5.721185   -1.220997   -1.880621
     16          1           0       -7.457208    3.317253   -0.611818
     17          1           0       -7.104850    2.421816   -2.097715
     18          1           0       -5.839104    2.620937   -0.883526
     19          1           0       -8.234861   -3.150546    1.488728
     20          1           0       -9.893624   -2.512268    1.606489
     21          1           0       -8.743698   -2.199210    2.902233
     22          1           0       -9.884301   -0.006055    3.247544
     23          1           0      -11.000167   -0.294063    1.916769
     24          1           0      -10.444104    1.361522    2.252389
     25          6           0       -3.203717    0.593993   -1.103366
     26          6           0       -3.136465    1.548200   -2.274022
     27          6           0       -1.941316    0.508751   -0.266153
     28          6           0       -0.723780   -0.096848   -0.993826
     29          6           0        0.533467   -0.153824   -0.115116
     30          6           0        1.814617   -0.653816   -0.815006
     31          6           0        3.044711   -0.430046    0.089198
     32          6           0        4.408448   -0.681968   -0.570450
     33          6           0        5.590198   -0.352010    0.352673
     34          6           0        6.992284   -0.510079   -0.272549
     35          6           0        8.061232    0.081746    0.669454
     36          6           0        9.480564    0.177057    0.090902
     37          6           0        1.686907   -2.120786   -1.254564
     38          6           0       10.465923    0.856761    1.051674
     39          6           0       11.894072    1.060992    0.507971
     40          6           0       12.619211   -0.263740    0.227397
     41          6           0       12.712579    1.934014    1.470157
     42          1           0       -4.217725   -0.785316    0.086335
     43          1           0       -4.111443    1.704214   -2.735100
     44          1           0       -2.454582    1.188862   -3.055649
     45          1           0       -2.756644    2.527783   -1.953915
     46          1           0       -2.147946   -0.085245    0.630392
     47          1           0       -1.666507    1.516450    0.083626
     48          1           0       -0.499516    0.491177   -1.892577
     49          1           0       -0.996895   -1.099179   -1.339845
     50          1           0        0.336327   -0.786912    0.761388
     51          1           0        0.725886    0.852857    0.278485
     52          1           0        1.955590   -0.041773   -1.718469
     53          1           0        2.950422   -1.065916    0.980750
     54          1           0        3.020842    0.604711    0.454219
     55          1           0        4.484485   -0.072591   -1.481498
     56          1           0        4.473939   -1.724785   -0.893737
     57          1           0        5.531559   -0.977609    1.254390
     58          1           0        5.481332    0.684355    0.697884
     59          6           0        7.295887   -1.971018   -0.640245
     60          1           0        8.086057   -0.509963    1.595366
     61          1           0        7.739849    1.088868    0.965458
     62          1           0        9.448326    0.740812   -0.851306
     63          1           0        9.846137   -0.821827   -0.163889
     64          1           0        0.828217   -2.268994   -1.913125
     65          1           0        1.552412   -2.772418   -0.383099
     66          1           0        2.574391   -2.463446   -1.792962
     67          1           0       10.521496    0.280939    1.985753
     68          1           0       10.060740    1.839380    1.328880
     69          1           0       11.810803    1.604684   -0.443338
     70          1           0       12.106754   -0.864392   -0.531249
     71          1           0       12.697285   -0.871605    1.136443
     72          1           0       13.638192   -0.083138   -0.133058
     73          1           0       12.233812    2.907597    1.631069
     74          1           0       13.720842    2.119359    1.084648
     75          1           0       12.819035    1.449580    2.448169
     76          1           0        7.007773    0.081304   -1.199932
     77          1           0        7.301977   -2.602984    0.255798
     78          1           0        8.271525   -2.074119   -1.122238
     79          1           0        6.551991   -2.379332   -1.329880
 ---------------------------------------------------------------------

 SCF Done:  E(UB3LYP) =  -1285.03838386     A.U. after   18 cycles

 The electronic state is 1-A.
 Alpha  occ. eigenvalues --  -18.99706 -18.99612 -10.16890 -10.16651 -10.16564
 Alpha  occ. eigenvalues --  -10.15712 -10.15685 -10.15673 -10.15653 -10.15630
 Alpha  occ. eigenvalues --  -10.15609 -10.15594 -10.15576 -10.15558 -10.15518
 Alpha  occ. eigenvalues --  -10.15279 -10.15254 -10.15139 -10.15078 -10.14951
 Alpha  occ. eigenvalues --  -10.14564 -10.14519 -10.14331 -10.13528 -10.12684
 Alpha  occ. eigenvalues --  -10.12649 -10.12559 -10.10775 -10.10703 -10.10677
 Alpha  occ. eigenvalues --  -10.10643  -0.92154  -0.91836  -0.82104  -0.81432
 Alpha  occ. eigenvalues --   -0.80468  -0.79631  -0.77499  -0.76298  -0.75118
 Alpha  occ. eigenvalues --   -0.73835  -0.72153  -0.70252  -0.68480  -0.67974
 Alpha  occ. eigenvalues --   -0.67478  -0.67348  -0.66677  -0.66329  -0.63976
 Alpha  occ. eigenvalues --   -0.61589  -0.59460  -0.58529  -0.57768  -0.56759
 Alpha  occ. eigenvalues --   -0.55857  -0.55397  -0.54667  -0.50320  -0.49723
 Alpha  occ. eigenvalues --   -0.48665  -0.47721  -0.47222  -0.46341  -0.46063
 Alpha  occ. eigenvalues --   -0.44757  -0.44275  -0.43999  -0.43694  -0.42978
 Alpha  occ. eigenvalues --   -0.42621  -0.41860  -0.41501  -0.40679  -0.40195
 Alpha  occ. eigenvalues --   -0.39771  -0.39363  -0.38989  -0.38574  -0.38072
 Alpha  occ. eigenvalues --   -0.37890  -0.37781  -0.37635  -0.37416  -0.36876
 Alpha  occ. eigenvalues --   -0.36529  -0.36412  -0.36211  -0.35965  -0.35670
 Alpha  occ. eigenvalues --   -0.35521  -0.35274  -0.35030  -0.34478  -0.34135
 Alpha  occ. eigenvalues --   -0.33750  -0.33598  -0.33151  -0.32906  -0.32554
 Alpha  occ. eigenvalues --   -0.32218  -0.32125  -0.31616  -0.31552  -0.31461
 Alpha  occ. eigenvalues --   -0.31380  -0.31286  -0.31037  -0.30774  -0.30220
 Alpha  occ. eigenvalues --   -0.29233  -0.29093  -0.28689  -0.28335  -0.22192
 Alpha  occ. eigenvalues --   -0.20264  -0.18341  -0.18012  -0.17044  -0.09114
 Alpha virt. eigenvalues --   -0.00577  -0.00332   0.00141   0.00515   0.00614
 Alpha virt. eigenvalues --    0.00851   0.01102   0.01271   0.01668   0.01807
 Alpha virt. eigenvalues --    0.02196   0.02565   0.02642   0.02980   0.03311

  Beta  occ. eigenvalues --  -18.99706 -18.99612 -10.16890 -10.16651 -10.16564
  Beta  occ. eigenvalues --  -10.15712 -10.15685 -10.15673 -10.15653 -10.15630
  Beta  occ. eigenvalues --  -10.15609 -10.15594 -10.15576 -10.15558 -10.15518
  Beta  occ. eigenvalues --  -10.15279 -10.15254 -10.15139 -10.15078 -10.14951
  Beta  occ. eigenvalues --  -10.14564 -10.14519 -10.14331 -10.13528 -10.12684
  Beta  occ. eigenvalues --  -10.12649 -10.12559 -10.10775 -10.10703 -10.10677
  Beta  occ. eigenvalues --  -10.10643  -0.92154  -0.91836  -0.82104  -0.81432
  Beta  occ. eigenvalues --   -0.80468  -0.79631  -0.77499  -0.76298  -0.75118
  Beta  occ. eigenvalues --   -0.73835  -0.72153  -0.70252  -0.68480  -0.67974
  Beta  occ. eigenvalues --   -0.67478  -0.67348  -0.66677  -0.66329  -0.63976
  Beta  occ. eigenvalues --   -0.61589  -0.59460  -0.58529  -0.57768  -0.56759
  Beta  occ. eigenvalues --   -0.55857  -0.55397  -0.54667  -0.50320  -0.49723
  Beta  occ. eigenvalues --   -0.48665  -0.47721  -0.47222  -0.46341  -0.46063
  Beta  occ. eigenvalues --   -0.44757  -0.44275  -0.43999  -0.43694  -0.42978
  Beta  occ. eigenvalues --   -0.42621  -0.41860  -0.41501  -0.40679  -0.40195
  Beta  occ. eigenvalues --   -0.39771  -0.39363  -0.38989  -0.38574  -0.38072
  Beta  occ. eigenvalues --   -0.37890  -0.37781  -0.37635  -0.37416  -0.36876
  Beta  occ. eigenvalues --   -0.36529  -0.36412  -0.36211  -0.35965  -0.35670
  Beta  occ. eigenvalues --   -0.35521  -0.35274  -0.35030  -0.34478  -0.34135
  Beta  occ. eigenvalues --   -0.33750  -0.33598  -0.33151  -0.32906  -0.32554
  Beta  occ. eigenvalues --   -0.32218  -0.32125  -0.31616  -0.31552  -0.31461
  Beta  occ. eigenvalues --   -0.31380  -0.31286  -0.31037  -0.30774  -0.30220
  Beta  occ. eigenvalues --   -0.29233  -0.29093  -0.28689  -0.28335  -0.22192
  Beta  occ. eigenvalues --   -0.20264  -0.18341  -0.18012  -0.17044  -0.09114
  Beta virt. eigenvalues --   -0.00577  -0.00332   0.00141   0.00515   0.00614
  Beta virt. eigenvalues --    0.00851   0.01102   0.01271   0.01668   0.01807
  Beta virt. eigenvalues --    0.02196   0.02565   0.02642   0.02980   0.03311

 Mulliken charges and spin densities:
               1          2
     1  C   -1.271973  -0.000000
     2  C    0.644821   0.000000
     3  C    0.357212  -0.000000
     4  C   -1.298048   0.000000
     5  C    0.626655  -0.000000
     6  C    1.056029   0.000000
     7  O   -0.684238  -0.000000
     8  O   -0.711861  -0.000000
     9  C   -0.135085  -0.000000
    10  C   -0.676896   0.000000
    11  C   -0.552008  -0.000000
    12  C   -0.531586   0.000000
    13  C   -0.611641  -0.000000
    14  H    0.150840  -0.000000
    15  H    0.188099   0.000000
    16  H    0.164280  -0.000000
    17  H    0.135242   0.000000
    18  H    0.136631   0.000000
    19  H    0.161335  -0.000000
    20  H    0.118649   0.000000
    21  H    0.121538   0.000000
    22  H    0.117734   0.000000
    23  H    0.119832   0.000000
    24  H    0.168824  -0.000000
    25  C    1.304554  -0.000000
    26  C   -0.792573  -0.000000
    27  C   -1.269545   0.000000
    28  C   -0.122671  -0.000000
    29  C   -0.880774   0.000000
    30  C    1.389355   0.000000
    31  C   -0.972289  -0.000000
    32  C   -0.039284   0.000000
    33  C   -1.046899  -0.000000
    34  C    1.344820   0.000000
    35  C   -0.780464   0.000000
    36  C    0.054568  -0.000000
    37  C   -0.791279   0.000000
    38  C   -0.773200   0.000000
    39  C    0.560084  -0.000000
    40  C   -0.704211   0.000000
    41  C   -0.664524   0.000000
    42  H    0.235263  -0.000000
    43  H    0.103159   0.000000
    44  H    0.162133   0.000000
    45  H    0.158157  -0.000000
    46  H    0.115719   0.000000
    47  H    0.160973  -0.000000
    48  H    0.126282  -0.000000
    49  H    0.146214   0.000000
    50  H    0.138668  -0.000000
    51  H    0.123924  -0.000000
    52  H    0.134574   0.000000
    53  H    0.152001   0.000000
    54  H    0.105416   0.000000
    55  H    0.158089   0.000000
    56  H    0.088681   0.000000
    57  H    0.146397   0.000000
    58  H    0.112609   0.000000
    59  C   -0.775053   0.000000
    60  H    0.143369  -0.000000
    61  H    0.106627  -0.000000
    62  H    0.150209  -0.000000
    63  H    0.092239  -0.000000
    64  H    0.139890  -0.000000
    65  H    0.160793   0.000000
    66  H    0.142117  -0.000000
    67  H    0.142000  -0.000000
    68  H    0.127987   0.000000
    69  H    0.140775   0.000000
    70  H    0.142528  -0.000000
    71  H    0.148628  -0.000000
    72  H    0.146288  -0.000000
    73  H    0.136056  -0.000000
    74  H    0.157369  -0.000000
    75  H    0.140140   0.000000
    76  H    0.133371  -0.000000
    77  H    0.160007   0.000000
    78  H    0.144341   0.000000
    79  H    0.142010   0.000000
 Sum of Mulliken charges =  -2.00000   0.00000

 Dipole moment (field-independent basis, Debye):
    X=             74.9116    Y=             -0.6414    Z=             -3.9860  Tot=             75.0203
 Quadrupole moment (field-independent basis, Debye-Ang):
   XX=           -818.5200   YY=           -260.0361   ZZ=           -216.6312
   XY=             30.0810   XZ=             34.2333   YZ=             -7.9650

 Normal termination of Gaussian 16 at Sun Jan 21 08:15:36 2024.
