 Gaussian 16, Revision A.03,
 Gaussian 16:  ES64L-G16RevA.03 25-Dec-2016

 ---------------------------------------------------------
 #P UB3LYP/genecp SCRF=(PCM,Solvent=n,n-DiMethylFormamide)
 ---------------------------------------------------------

 ------------------
 Radical PCM in DMF
 ------------------
 Symbolic Z-matrix:
 Charge = -1 Multiplicity = 2

                         Standard orientation:
 ---------------------------------------------------------------------
 Center     Atomic      Atomic             Coordinates (Angstroms)
 Number     Number       Type             X           Y           Z
 ---------------------------------------------------------------------
      1         53           0       -3.045032   -0.605223   -0.000007
      2          6           0       -1.208575    0.469729    0.000024
      3          6           0       -1.227253    1.834299    0.000013
      4          6           0        0.000100    2.609220    0.000029
      5          8           0        0.000343    3.868007   -0.000019
      6          6           0        1.227145    1.834097   -0.000013
      7          6           0        1.208631    0.469297    0.000010
      8         53           0        3.045031   -0.605294   -0.000004
      9          6           0        0.000091   -0.349240    0.000063
     10          8           0       -0.000501   -1.596616    0.000004
     11          1           0       -2.155871    2.391484    0.000008
     12          1           0        2.156329    2.390389   -0.000060
 ---------------------------------------------------------------------

 SCF Done:  E(UB3LYP) =  -976.123654951     A.U. after   20 cycles

 The electronic state is 2-A.
 Alpha  occ. eigenvalues --  -19.09514 -19.09147 -10.24760 -10.23655 -10.22004
 Alpha  occ. eigenvalues --  -10.22002 -10.18135 -10.18134  -6.84027  -6.84025
 Alpha  occ. eigenvalues --   -4.86431  -4.86429  -4.85343  -4.85341  -4.85280
 Alpha  occ. eigenvalues --   -4.85278  -1.91244  -1.91242  -1.90890  -1.90888
 Alpha  occ. eigenvalues --   -1.90845  -1.90843  -1.89906  -1.89904  -1.89904
 Alpha  occ. eigenvalues --   -1.89902  -1.02443  -1.01361  -0.84707  -0.77928
 Alpha  occ. eigenvalues --   -0.71749  -0.68769  -0.67992  -0.58886  -0.57247
 Alpha  occ. eigenvalues --   -0.49675  -0.48400  -0.43217  -0.42958  -0.41437
 Alpha  occ. eigenvalues --   -0.41312  -0.39238  -0.37476  -0.34587  -0.31465
 Alpha  occ. eigenvalues --   -0.31070  -0.27176  -0.26516  -0.26088  -0.25704
 Alpha  occ. eigenvalues --   -0.24577  -0.24234  -0.17714
 Alpha virt. eigenvalues --   -0.04827  -0.02871  -0.01566   0.00223   0.01333
 Alpha virt. eigenvalues --    0.01910   0.02922   0.05539   0.06100   0.06103
 Alpha virt. eigenvalues --    0.06313   0.08269   0.09645   0.09650   0.11285

  Beta  occ. eigenvalues --  -19.08837 -19.08413 -10.24622 -10.23552 -10.21903
  Beta  occ. eigenvalues --  -10.21901 -10.18002 -10.18001  -6.84027  -6.84025
  Beta  occ. eigenvalues --   -4.86434  -4.86432  -4.85339  -4.85337  -4.85281
  Beta  occ. eigenvalues --   -4.85279  -1.91247  -1.91245  -1.90889  -1.90887
  Beta  occ. eigenvalues --   -1.90848  -1.90846  -1.89903  -1.89902  -1.89901
  Beta  occ. eigenvalues --   -1.89900  -1.01267  -1.00080  -0.84089  -0.77682
  Beta  occ. eigenvalues --   -0.71186  -0.68616  -0.67379  -0.58501  -0.56803
  Beta  occ. eigenvalues --   -0.49443  -0.47957  -0.42493  -0.41178  -0.41080
  Beta  occ. eigenvalues --   -0.40962  -0.37207  -0.36333  -0.34379  -0.30982
  Beta  occ. eigenvalues --   -0.28577  -0.26918  -0.26500  -0.25117  -0.24871
  Beta  occ. eigenvalues --   -0.24143  -0.23778
  Beta virt. eigenvalues --   -0.10527  -0.04697  -0.01482  -0.01408   0.00258
  Beta virt. eigenvalues --    0.01925   0.02975   0.03634   0.05596   0.06113
  Beta virt. eigenvalues --    0.06352   0.06383   0.08462   0.09710   0.09773

 Mulliken charges and spin densities:
               1          2
     1  I   -0.133079  -0.001413
     2  C    1.450852   0.086550
     3  C   -0.433339   0.099639
     4  C   -0.122685   0.105535
     5  O   -0.477357   0.256704
     6  C   -0.432601   0.100080
     7  C    1.451561   0.086552
     8  I   -0.133042  -0.001398
     9  C   -2.172817   0.032602
    10  O   -0.345006   0.249633
    11  H    0.173777  -0.007232
    12  H    0.173735  -0.007253
 Sum of Mulliken charges =  -1.00000   1.00000

 Dipole moment (field-independent basis, Debye):
    X=              0.0014    Y=             -3.5565    Z=              0.0001  Tot=              3.5565
 Quadrupole moment (field-independent basis, Debye-Ang):
   XX=           -108.3477   YY=           -143.6524   ZZ=           -103.6541
   XY=             -0.0077   XZ=             -0.0000   YZ=              0.0002

 Normal termination of Gaussian 16 at Mon Jan 22 18:30:53 2024.
