 Q-Chem 5.4, Q-Chem, Inc., Pleasanton, CA (2021)
 Q-Chem 5.4.0 for Intel X86 EM64T Linux

User input:
--------------------------------------------------------------
$molecule
-1 2
C                  5.0723530000     -2.4798040000      0.2729590000
C                  5.8102150000     -1.5220010000     -0.3842780000
C                  5.1230290000     -0.4965260000     -1.0735050000
C                  3.6590840000     -2.4587670000      0.2630700000
C                  2.9850150000     -1.4168020000     -0.4361050000
C                  3.7450960000     -0.4345210000     -1.1009580000
C                  2.9281540000     -3.5086260000      0.9751300000
C                  1.4646310000     -3.4218690000      0.9186510000
C                  0.7905310000     -2.3800030000      0.2193700000
C                  1.5215120000     -1.3300940000     -0.4927420000
C                  0.7045530000     -4.4039900000      1.5837010000
C                 -0.6226820000     -2.3589820000      0.2093930000
C                 -1.3605790000     -3.3167370000      0.8667600000
O                  3.5150370000     -4.4208930000      1.5972040000
O                  0.9345930000     -0.4178800000     -1.1147700000
H                  5.5556890000     -3.2801730000      0.8202430000
H                 -2.4428970000     -3.3051600000      0.8522090000
H                  3.2213540000      0.3596900000     -1.6179370000
H                  1.2283300000     -5.1980900000      2.1008290000
H                 -1.1060280000     -1.5587140000     -0.3380290000
C                 -0.6733940000     -4.3419490000      1.5562110000
S                  6.0673870000      0.7167650000     -1.9736610000
H                  6.8925350000     -1.5336730000     -0.3698670000
S                 -1.6176340000     -5.5550940000      2.4568810000
O                 -0.7622520000     -6.7077080000      2.7528430000
O                 -2.9253070000     -5.7540970000      1.8243740000
N                 -1.9832390000     -4.7260830000      3.9088170000
H                 -1.2244180000     -4.8447280000      4.5748560000
H                 -2.8435610000     -5.1195780000      4.2814310000
O                  5.2118270000      1.8691020000     -2.2701690000
O                  7.3746920000      0.9163300000     -1.3405520000
N                  6.4342110000     -0.1123500000     -3.4250070000
H                  7.2941420000      0.2817390000     -3.7978140000
H                  5.6752790000      0.0043570000     -4.0912170000
$end
$rem
MAX_SCF_CYCLES=200
BASIS  =  6-311++G(d,p)
GUI  =  2
JOB_TYPE  =  SP
METHOD  =  B3LYP
SOLVENT_METHOD = PCM
$end
$pcm
theory = CPCM
$end
$solvent
dielectric 37.219
opticaldielectric 1.43
$end

--------------------------------------------------------------

             Standard Nuclear Orientation (Angstroms)
    I     Atom           X                Y                Z
 ----------------------------------------------------------------
    1      C       5.0723530000    -2.4798040000     0.2729590000
    2      C       5.8102150000    -1.5220010000    -0.3842780000
    3      C       5.1230290000    -0.4965260000    -1.0735050000
    4      C       3.6590840000    -2.4587670000     0.2630700000
    5      C       2.9850150000    -1.4168020000    -0.4361050000
    6      C       3.7450960000    -0.4345210000    -1.1009580000
    7      C       2.9281540000    -3.5086260000     0.9751300000
    8      C       1.4646310000    -3.4218690000     0.9186510000
    9      C       0.7905310000    -2.3800030000     0.2193700000
   10      C       1.5215120000    -1.3300940000    -0.4927420000
   11      C       0.7045530000    -4.4039900000     1.5837010000
   12      C      -0.6226820000    -2.3589820000     0.2093930000
   13      C      -1.3605790000    -3.3167370000     0.8667600000
   14      O       3.5150370000    -4.4208930000     1.5972040000
   15      O       0.9345930000    -0.4178800000    -1.1147700000
   16      H       5.5556890000    -3.2801730000     0.8202430000
   17      H      -2.4428970000    -3.3051600000     0.8522090000
   18      H       3.2213540000     0.3596900000    -1.6179370000
   19      H       1.2283300000    -5.1980900000     2.1008290000
   20      H      -1.1060280000    -1.5587140000    -0.3380290000
   21      C      -0.6733940000    -4.3419490000     1.5562110000
   22      S       6.0673870000     0.7167650000    -1.9736610000
   23      H       6.8925350000    -1.5336730000    -0.3698670000
   24      S      -1.6176340000    -5.5550940000     2.4568810000
   25      O      -0.7622520000    -6.7077080000     2.7528430000
   26      O      -2.9253070000    -5.7540970000     1.8243740000
   27      N      -1.9832390000    -4.7260830000     3.9088170000
   28      H      -1.2244180000    -4.8447280000     4.5748560000
   29      H      -2.8435610000    -5.1195780000     4.2814310000
   30      O       5.2118270000     1.8691020000    -2.2701690000
   31      O       7.3746920000     0.9163300000    -1.3405520000
   32      N       6.4342110000    -0.1123500000    -3.4250070000
   33      H       7.2941420000     0.2817390000    -3.7978140000
   34      H       5.6752790000     0.0043570000    -4.0912170000
 ----------------------------------------------------------------

    8   -1897.1656974975      7.52e-06  Convergence criterion met
 Total energy in the final basis set =    -1897.1656974975

                    Orbital Energies (a.u.)
 --------------------------------------------------------------

 Alpha MOs
 -- Occupied --
-89.0785 -89.0784 -19.1326 -19.1326 -19.1325 -19.1325 -19.0920 -19.0920
-14.3419 -14.3419 -10.2422 -10.2422 -10.2209 -10.2209 -10.1990 -10.1990
-10.1956 -10.1956 -10.1931 -10.1931 -10.1926 -10.1925 -10.1874 -10.1874
 -8.1403  -8.1403  -6.1030  -6.1030  -6.1029  -6.1029  -6.1010  -6.1010
 -1.1345  -1.1345  -1.0257  -1.0257  -1.0224  -1.0199  -0.9103  -0.9102
 -0.8861  -0.8787  -0.8164  -0.7839  -0.7755  -0.7704  -0.7055  -0.7010
 -0.6592  -0.6519  -0.6130  -0.6083  -0.5778  -0.5625  -0.5516  -0.5384
 -0.5251  -0.5235  -0.5175  -0.5104  -0.4948  -0.4882  -0.4818  -0.4727
 -0.4634  -0.4481  -0.4465  -0.4424  -0.4395  -0.4316  -0.4298  -0.4154
 -0.3971  -0.3916  -0.3881  -0.3756  -0.3747  -0.3726  -0.3640  -0.3577
 -0.3478  -0.3471  -0.3358  -0.3354  -0.3256  -0.3247  -0.3039  -0.3035
 -0.2833  -0.2789  -0.2756  -0.2687  -0.2627  -0.2536  -0.1596

 Beta MOs
 -- Occupied --
-89.0785 -89.0785 -19.1326 -19.1326 -19.1325 -19.1325 -19.0868 -19.0868
-14.3419 -14.3419 -10.2406 -10.2406 -10.2205 -10.2205 -10.1992 -10.1992
-10.1948 -10.1948 -10.1923 -10.1923 -10.1915 -10.1915 -10.1875 -10.1875
 -8.1403  -8.1403  -6.1030  -6.1030  -6.1029  -6.1029  -6.1010  -6.1010
 -1.1344  -1.1344  -1.0256  -1.0256  -1.0132  -1.0105  -0.9101  -0.9101
 -0.8837  -0.8775  -0.8125  -0.7820  -0.7742  -0.7681  -0.7041  -0.6956
 -0.6562  -0.6501  -0.6115  -0.6077  -0.5757  -0.5616  -0.5499  -0.5374
 -0.5248  -0.5232  -0.5170  -0.5100  -0.4925  -0.4873  -0.4801  -0.4723
 -0.4631  -0.4478  -0.4459  -0.4415  -0.4289  -0.4271  -0.4254  -0.4128
 -0.3887  -0.3863  -0.3752  -0.3743  -0.3738  -0.3722  -0.3561  -0.3546
 -0.3472  -0.3469  -0.3355  -0.3352  -0.3253  -0.3244  -0.3025  -0.3000
 -0.2757  -0.2674  -0.2648  -0.2627  -0.2578  -0.2487

          Ground-State Mulliken Net Atomic Charges

     Atom                 Charge (a.u.)    Spin (a.u.)
  --------------------------------------------------------
      1 C                    -0.078767       0.012403
      2 C                    -0.409812       0.068611
      3 C                    -0.242489       0.020725
      4 C                     0.554558       0.062533
      5 C                     0.114267       0.044008
      6 C                    -0.006155       0.004290
      7 C                    -0.591429       0.085112
      8 C                     0.113534       0.043919
      9 C                     0.554633       0.062483
     10 C                    -0.591566       0.085042
     11 C                    -0.006826       0.004352
     12 C                    -0.078252       0.012376
     13 C                    -0.410214       0.068601
     14 O                    -0.425884       0.203029
     15 O                    -0.425804       0.202951
     16 H                     0.182087      -0.000896
     17 H                     0.269797      -0.004217
     18 H                     0.241034      -0.000505
     19 H                     0.241078      -0.000510
     20 H                     0.182100      -0.000894
     21 C                    -0.241820       0.020671
     22 S                     0.315446       0.004679
     23 H                     0.269845      -0.004218
     24 S                     0.315292       0.004661
     25 O                    -0.282299       0.001765
     26 O                    -0.337667      -0.001983
     27 N                    -0.469204       0.000115
     28 H                     0.322860      -0.000210
     29 H                     0.344000       0.000713
     30 O                    -0.282149       0.001765
     31 O                    -0.337721      -0.001986
     32 N                    -0.469297       0.000110
     33 H                     0.344004       0.000714
     34 H                     0.322816      -0.000210
  --------------------------------------------------------
  Sum of atomic charges =    -1.000002

                    Cartesian Multipole Moments
 -----------------------------------------------------------------
    Charge (ESU x 10^10)
                -4.8032
    Dipole Moment (Debye)
         X     -10.6879      Y      11.6170      Z      -1.1609
       Tot      15.8282
    Quadrupole Moments (Debye-Ang)
        XX    -220.4394     XY      -4.9910     YY    -258.5620
        XZ     -19.5918     YZ      17.4554     ZZ    -134.7351

 Total job time:  123.78s(wall), 820.14s(cpu)
        *  Thank you very much for using Q-Chem.  Have a nice day.  *
