 Q-Chem 5.4, Q-Chem, Inc., Pleasanton, CA (2021)
 Q-Chem 5.4.0 for Intel X86 EM64T Linux

User input:
--------------------------------------------------------------
$molecule
-2 1
C                 -2.1672860000     -5.4046350000      0.7034000000
C                 -0.9721400000     -5.5961940000     -0.0440370000
C                 -0.2220350000     -4.5671470000     -0.6179470000
C                 -0.6511890000     -3.1919550000     -0.5753430000
C                 -2.5669930000     -4.0244620000      0.7962280000
C                 -1.8577070000     -3.0058400000      0.1491040000
O                 -2.8935790000     -6.3341440000      1.2370410000
O                  0.0347850000     -2.2772330000     -1.1863060000
N                 -3.8221750000     -3.8365880000      1.4715310000
N                  0.9638130000     -4.7698400000     -1.3993440000
C                 -3.8374460000     -3.4150220000      2.8988510000
C                 -2.4761110000     -3.0136810000      3.4798260000
C                 -4.8641050000     -2.2857010000      3.1387990000
C                  2.1793930000     -5.1940460000     -0.6811050000
C                  2.9938160000     -4.0254340000     -0.1080060000
C                  3.0579390000     -6.1019560000     -1.5653020000
N                 -5.4653350000     -1.8534600000      2.0095310000
N                  2.4422890000     -6.4896290000     -2.7066420000
C                  2.9823010000     -7.4750680000     -3.6084760000
C                 -6.3297690000     -0.7024560000      1.9573210000
O                 -5.1143970000     -1.8499940000      4.2677030000
O                  4.1965520000     -6.4533290000     -1.2435500000
Cl                -0.4391990000     -7.2965300000     -0.2816350000
Cl                -2.4983110000     -1.3281540000      0.2042660000
H                 -4.1938750000     -4.7917600000      1.4619900000
H                  1.1172500000     -3.8282310000     -1.7866000000
H                 -4.2096960000     -4.2562390000      3.4993840000
H                 -2.6034970000     -2.7264730000      4.5264260000
H                 -2.0446620000     -2.1757520000      2.9295580000
H                 -1.7863840000     -3.8562330000      3.4091350000
H                  1.8693560000     -5.8410670000      0.1447060000
H                  2.3615490000     -3.4425000000      0.5641450000
H                  3.3281710000     -3.3588210000     -0.9096080000
H                  3.8732570000     -4.3923410000      0.4278100000
H                 -5.0621150000     -2.2814820000      1.1721620000
H                  1.4789640000     -6.1494950000     -2.7587130000
H                  4.0404620000     -7.6094610000     -3.3763900000
H                  2.8824550000     -7.1479080000     -4.6496810000
H                  2.4776560000     -8.4446780000     -3.5029830000
H                 -7.2360170000     -0.9170320000      1.3786460000
H                 -5.8258450000      0.1581670000      1.4986320000
H                 -6.6130520000     -0.4384040000      2.9779340000
$end

$rem
BASIS  =  6-311++G(d,p)
GUI  =  2
JOB_TYPE  =  SP
METHOD  =  B3LYP
SCF_CONVERGENCE  = 8
SOLVENT_METHOD = sm12
$end

$smx
solvent dimethylformamide
charges CM5
$end

--------------------------------------------------------------

             Standard Nuclear Orientation (Angstroms)
    I     Atom           X                Y                Z
 ----------------------------------------------------------------
    1      C      -2.1672860000    -5.4046350000     0.7034000000
    2      C      -0.9721400000    -5.5961940000    -0.0440370000
    3      C      -0.2220350000    -4.5671470000    -0.6179470000
    4      C      -0.6511890000    -3.1919550000    -0.5753430000
    5      C      -2.5669930000    -4.0244620000     0.7962280000
    6      C      -1.8577070000    -3.0058400000     0.1491040000
    7      O      -2.8935790000    -6.3341440000     1.2370410000
    8      O       0.0347850000    -2.2772330000    -1.1863060000
    9      N      -3.8221750000    -3.8365880000     1.4715310000
   10      N       0.9638130000    -4.7698400000    -1.3993440000
   11      C      -3.8374460000    -3.4150220000     2.8988510000
   12      C      -2.4761110000    -3.0136810000     3.4798260000
   13      C      -4.8641050000    -2.2857010000     3.1387990000
   14      C       2.1793930000    -5.1940460000    -0.6811050000
   15      C       2.9938160000    -4.0254340000    -0.1080060000
   16      C       3.0579390000    -6.1019560000    -1.5653020000
   17      N      -5.4653350000    -1.8534600000     2.0095310000
   18      N       2.4422890000    -6.4896290000    -2.7066420000
   19      C       2.9823010000    -7.4750680000    -3.6084760000
   20      C      -6.3297690000    -0.7024560000     1.9573210000
   21      O      -5.1143970000    -1.8499940000     4.2677030000
   22      O       4.1965520000    -6.4533290000    -1.2435500000
   23      Cl     -0.4391990000    -7.2965300000    -0.2816350000
   24      Cl     -2.4983110000    -1.3281540000     0.2042660000
   25      H      -4.1938750000    -4.7917600000     1.4619900000
   26      H       1.1172500000    -3.8282310000    -1.7866000000
   27      H      -4.2096960000    -4.2562390000     3.4993840000
   28      H      -2.6034970000    -2.7264730000     4.5264260000
   29      H      -2.0446620000    -2.1757520000     2.9295580000
   30      H      -1.7863840000    -3.8562330000     3.4091350000
   31      H       1.8693560000    -5.8410670000     0.1447060000
   32      H       2.3615490000    -3.4425000000     0.5641450000
   33      H       3.3281710000    -3.3588210000    -0.9096080000
   34      H       3.8732570000    -4.3923410000     0.4278100000
   35      H      -5.0621150000    -2.2814820000     1.1721620000
   36      H       1.4789640000    -6.1494950000    -2.7587130000
   37      H       4.0404620000    -7.6094610000    -3.3763900000
   38      H       2.8824550000    -7.1479080000    -4.6496810000
   39      H       2.4776560000    -8.4446780000    -3.5029830000
   40      H      -7.2360170000    -0.9170320000     1.3786460000
   41      H      -5.8258450000     0.1581670000     1.4986320000
   42      H      -6.6130520000    -0.4384040000     2.9779340000
 ----------------------------------------------------------------

   16   -1985.0317879064      8.83e-09  Convergence criterion met
 Total energy in the final basis set =    -1985.2622878703

                    Orbital Energies (a.u.)
 --------------------------------------------------------------

 Alpha MOs
 -- Occupied --
********-101.5190 -19.0826 -19.0813 -19.0133 -19.0124 -14.3249 -14.3234
-14.2922 -14.2905 -10.2608 -10.2590 -10.2050 -10.2029 -10.1977 -10.1974
-10.1787 -10.1785 -10.1745 -10.1744 -10.1648 -10.1611 -10.1608 -10.1602
 -9.4329  -9.4328  -7.1968  -7.1968  -7.1884  -7.1883  -7.1876  -7.1875
 -1.0295  -1.0279  -0.9425  -0.9361  -0.9191  -0.9180  -0.8909  -0.8856
 -0.8283  -0.8198  -0.7698  -0.7563  -0.7354  -0.7102  -0.7101  -0.6663
 -0.6459  -0.6310  -0.6129  -0.5656  -0.5628  -0.5461  -0.5347  -0.5152
 -0.5049  -0.4941  -0.4731  -0.4681  -0.4620  -0.4525  -0.4426  -0.4398
 -0.4338  -0.4241  -0.4228  -0.4114  -0.4054  -0.3961  -0.3889  -0.3872
 -0.3856  -0.3849  -0.3785  -0.3758  -0.3650  -0.3641  -0.3586  -0.3530
 -0.3455  -0.3380  -0.3304  -0.3280  -0.3090  -0.2933  -0.2850  -0.2814
 -0.2720  -0.2702  -0.2524  -0.2506  -0.2412  -0.2363  -0.2083  -0.2000
 -0.1944  -0.1850  -0.1140

          Ground-State Mulliken Net Atomic Charges

     Atom                 Charge (a.u.)
  ----------------------------------------
      1 C                    -1.469177
      2 C                    -0.366900
      3 C                    -1.064546
      4 C                    -1.300709
      5 C                    -0.756766
      6 C                    -0.072011
      7 O                    -0.435817
      8 O                    -0.428033
      9 N                    -0.051813
     10 N                     0.192619
     11 C                     0.203606
     12 C                    -0.641755
     13 C                     0.346455
     14 C                    -0.137352
     15 C                    -0.490493
     16 C                     0.463663
     17 N                    -0.223781
     18 N                    -0.232202
     19 C                     0.178249
     20 C                     0.127038
     21 O                    -0.361079
     22 O                    -0.354130
     23 Cl                    0.883753
     24 Cl                    0.922413
     25 H                     0.203951
     26 H                     0.149283
     27 H                     0.148540
     28 H                     0.267437
     29 H                    -0.019288
     30 H                    -0.014058
     31 H                    -0.016761
     32 H                     0.050471
     33 H                     0.145388
     34 H                     0.234970
     35 H                     0.278469
     36 H                     0.321809
     37 H                     0.204293
     38 H                     0.247643
     39 H                     0.211240
     40 H                     0.245106
     41 H                     0.207477
     42 H                     0.202797
  ----------------------------------------
  Sum of atomic charges =    -2.000000

                    Cartesian Multipole Moments
 -----------------------------------------------------------------
    Charge (ESU x 10^10)
                -9.6064
    Dipole Moment (Debye)
         X      10.8623      Y      40.7573      Z      -5.9497
       Tot      42.5975
    Quadrupole Moments (Debye-Ang)
        XX    -253.4284     XY     -32.8742     YY    -391.9788
        XZ      46.7147     YZ      22.5229     ZZ    -203.1193

 Total job time:  1920.51s(wall), 14453.74s(cpu)
        *  Thank you very much for using Q-Chem.  Have a nice day.  *
