 Q-Chem 5.4, Q-Chem, Inc., Pleasanton, CA (2021)
 Q-Chem 5.4.0 for Intel X86 EM64T Linux

User input:
--------------------------------------------------------------
$molecule
-2 1
C                 -1.6319640000      2.9002590000     -0.6754170000
C                 -2.8408130000      2.2971510000     -0.3867010000
C                 -2.8723070000      0.9255080000     -0.0142160000
C                 -0.3987730000      2.2055550000     -0.6167830000
C                 -0.4421340000      0.8008170000     -0.2514390000
C                 -1.6924460000      0.2068140000      0.0472520000
C                  0.8337060000      2.9191870000     -0.9264800000
C                  2.0985320000      2.1283740000     -0.8499090000
C                  1.9798480000      0.7339170000     -0.4876380000
C                  0.7850950000      0.0949430000     -0.2060320000
O                  0.8337450000      4.1449610000     -1.2425490000
O                  3.2296930000      2.6385750000     -1.0970560000
O                  0.6909050000     -1.2561670000      0.1619740000
C                  1.8808190000     -1.9698590000      0.3685580000
C                  1.6138870000     -3.3396100000      0.9166980000
C                  0.4235750000     -3.8425940000      1.2347180000
H                 -1.5792690000      3.9468400000     -0.9592000000
H                 -3.7658410000      2.8676150000     -0.4437680000
H                 -3.8175980000      0.4408020000      0.2188760000
H                 -1.7099040000     -0.8406780000      0.3285780000
H                  2.9223070000      0.1972420000     -0.4662940000
H                  2.5455760000     -1.4278340000      1.0590320000
H                  2.4475040000     -2.0737010000     -0.5751330000
H                  2.5086890000     -3.9507320000      1.0458660000
H                 -0.4785130000     -3.2559190000      1.1098610000
H                  0.3295680000     -4.8534950000      1.6207100000
$end
$rem
MAX_SCF_CYCLES=200
BASIS  =  6-311++G(d,p)
GUI  =  2
JOB_TYPE  =  SP
METHOD  =  B3LYP
SOLVENT_METHOD = PCM
$end
$pcm
theory = CPCM
$end
$solvent
dielectric 37.219
opticaldielectric 1.43
$end

--------------------------------------------------------------

             Standard Nuclear Orientation (Angstroms)
    I     Atom           X                Y                Z
 ----------------------------------------------------------------
    1      C      -1.6319640000     2.9002590000    -0.6754170000
    2      C      -2.8408130000     2.2971510000    -0.3867010000
    3      C      -2.8723070000     0.9255080000    -0.0142160000
    4      C      -0.3987730000     2.2055550000    -0.6167830000
    5      C      -0.4421340000     0.8008170000    -0.2514390000
    6      C      -1.6924460000     0.2068140000     0.0472520000
    7      C       0.8337060000     2.9191870000    -0.9264800000
    8      C       2.0985320000     2.1283740000    -0.8499090000
    9      C       1.9798480000     0.7339170000    -0.4876380000
   10      C       0.7850950000     0.0949430000    -0.2060320000
   11      O       0.8337450000     4.1449610000    -1.2425490000
   12      O       3.2296930000     2.6385750000    -1.0970560000
   13      O       0.6909050000    -1.2561670000     0.1619740000
   14      C       1.8808190000    -1.9698590000     0.3685580000
   15      C       1.6138870000    -3.3396100000     0.9166980000
   16      C       0.4235750000    -3.8425940000     1.2347180000
   17      H      -1.5792690000     3.9468400000    -0.9592000000
   18      H      -3.7658410000     2.8676150000    -0.4437680000
   19      H      -3.8175980000     0.4408020000     0.2188760000
   20      H      -1.7099040000    -0.8406780000     0.3285780000
   21      H       2.9223070000     0.1972420000    -0.4662940000
   22      H       2.5455760000    -1.4278340000     1.0590320000
   23      H       2.4475040000    -2.0737010000    -0.5751330000
   24      H       2.5086890000    -3.9507320000     1.0458660000
   25      H      -0.4785130000    -3.2559190000     1.1098610000
   26      H       0.3295680000    -4.8534950000     1.6207100000
 ----------------------------------------------------------------

    9    -727.4849894845      4.87e-06  Convergence criterion met
 Total energy in the final basis set =     -727.4849894845

                    Orbital Energies (a.u.)
 --------------------------------------------------------------

 Alpha MOs
 -- Occupied --
-19.1290 -19.0230 -19.0187 -10.2162 -10.1896 -10.1737 -10.1701 -10.1637
-10.1575 -10.1484 -10.1448 -10.1437 -10.1414 -10.1412 -10.1322 -10.1257
 -1.0418  -0.9567  -0.9296  -0.8287  -0.7898  -0.7604  -0.7245  -0.6941
 -0.6858  -0.6343  -0.5887  -0.5631  -0.5604  -0.5268  -0.5020  -0.4765
 -0.4683  -0.4613  -0.4524  -0.4219  -0.4121  -0.4025  -0.3956  -0.3866
 -0.3765  -0.3683  -0.3530  -0.3500  -0.3367  -0.3345  -0.3262  -0.3126
 -0.3060  -0.2880  -0.2620  -0.2450  -0.2283  -0.2151  -0.1897  -0.1845
 -0.1075

          Ground-State Mulliken Net Atomic Charges

     Atom                 Charge (a.u.)
  ----------------------------------------
      1 C                     0.037716
      2 C                    -0.540845
      3 C                    -0.417266
      4 C                     0.429055
      5 C                     0.119826
      6 C                    -0.220693
      7 C                    -0.204000
      8 C                    -0.216371
      9 C                     0.375930
     10 C                    -0.505869
     11 O                    -0.721884
     12 O                    -0.700823
     13 O                    -0.196223
     14 C                     0.039399
     15 C                    -0.276559
     16 C                    -0.656996
     17 H                     0.144414
     18 H                     0.166652
     19 H                     0.178332
     20 H                     0.116744
     21 H                     0.184215
     22 H                     0.166202
     23 H                     0.162402
     24 H                     0.226688
     25 H                     0.137844
     26 H                     0.172111
  ----------------------------------------
  Sum of atomic charges =    -2.000000

                    Cartesian Multipole Moments
 -----------------------------------------------------------------
    Charge (ESU x 10^10)
                -9.6064
    Dipole Moment (Debye)
         X     -10.5755      Y     -26.5360      Z       8.9039
       Tot      29.9212
    Quadrupole Moments (Debye-Ang)
        XX    -142.3037     XY     -43.2705     YY    -192.9873
        XZ      16.0381     YZ      28.5876     ZZ    -116.1413

 Total job time:  60.14s(wall), 283.72s(cpu)
        *  Thank you very much for using Q-Chem.  Have a nice day.  *
