 Q-Chem 5.4, Q-Chem, Inc., Pleasanton, CA (2021)
 Q-Chem 5.4.0 for Intel X86 EM64T Linux

User input:
--------------------------------------------------------------
$molecule
-2 1
Cl                 3.1197580000     -0.1415140000      0.0318320000
C                  1.2868110000     -0.1053110000      0.0129950000
C                  0.6950870000      1.1633740000      0.0111780000
C                 -0.7245460000      1.3492820000     -0.0028930000
O                 -1.3004110000      2.5189860000     -0.0049040000
C                 -1.4347390000      0.1044140000     -0.0145190000
C                 -0.8064570000     -1.1442570000     -0.0122520000
C                  0.6145250000     -1.3640450000      0.0017600000
O                  1.1652860000     -2.5367810000      0.0034310000
H                  1.3235520000      2.0495450000      0.0206870000
H                 -2.5251480000      0.1574590000     -0.0256650000
H                 -1.4137190000     -2.0511530000     -0.0216500000
$end

$rem
BASIS  =  6-311++G(d,p)
GUI  =  2
JOB_TYPE  =  SP
METHOD  =  B3LYP
SCF_CONVERGENCE  = 8
SOLVENT_METHOD = sm12
$end

$smx
solvent dimethylformamide
charges CM5
$end

--------------------------------------------------------------

             Standard Nuclear Orientation (Angstroms)
    I     Atom           X                Y                Z
 ----------------------------------------------------------------
    1      Cl      3.1197580000    -0.1415140000     0.0318320000
    2      C       1.2868110000    -0.1053110000     0.0129950000
    3      C       0.6950870000     1.1633740000     0.0111780000
    4      C      -0.7245460000     1.3492820000    -0.0028930000
    5      O      -1.3004110000     2.5189860000    -0.0049040000
    6      C      -1.4347390000     0.1044140000    -0.0145190000
    7      C      -0.8064570000    -1.1442570000    -0.0122520000
    8      C       0.6145250000    -1.3640450000     0.0017600000
    9      O       1.1652860000    -2.5367810000     0.0034310000
   10      H       1.3235520000     2.0495450000     0.0206870000
   11      H      -2.5251480000     0.1574590000    -0.0256650000
   12      H      -1.4137190000    -2.0511530000    -0.0216500000
 ----------------------------------------------------------------

   18    -841.1654916627      3.46e-09  Convergence criterion met
 Total energy in the final basis set =     -841.4645528331

                    Orbital Energies (a.u.)
 --------------------------------------------------------------

 Alpha MOs
 -- Occupied --
******** -19.0274 -19.0252 -10.2003 -10.1941 -10.1920 -10.1546 -10.1522
-10.1520  -9.4453  -7.2092  -7.2009  -7.2005  -0.9389  -0.9335  -0.8384
 -0.7888  -0.7108  -0.6689  -0.5834  -0.5473  -0.4556  -0.4495  -0.4311
 -0.3976  -0.3814  -0.3658  -0.3454  -0.3427  -0.3284  -0.3086  -0.2919
 -0.2387  -0.2299  -0.2041  -0.2022  -0.1344

          Ground-State Mulliken Net Atomic Charges

     Atom                 Charge (a.u.)
  ----------------------------------------
      1 Cl                    0.748651
      2 C                     1.994501
      3 C                    -0.742445
      4 C                    -1.365940
      5 O                    -0.434220
      6 C                    -0.419923
      7 C                    -0.496148
      8 C                    -1.023561
      9 O                    -0.395166
     10 H                     0.065204
     11 H                     0.028427
     12 H                     0.040621
  ----------------------------------------
  Sum of atomic charges =    -2.000000

                    Cartesian Multipole Moments
 -----------------------------------------------------------------
    Charge (ESU x 10^10)
                -9.6064
    Dipole Moment (Debye)
         X      -1.6982      Y      -0.2038      Z      -0.0185
       Tot       1.7105
    Quadrupole Moments (Debye-Ang)
        XX     -94.2957     XY      21.4745     YY    -116.1306
        XZ      -0.1853     YZ       0.0632     ZZ     -69.2694

 Total job time:  148.87s(wall), 783.54s(cpu)
        *  Thank you very much for using Q-Chem.  Have a nice day.  *
