 Gaussian 16, Revision A.03,
 Gaussian 16:  ES64L-G16RevA.03 25-Dec-2016

 ----------------------------------------------------------------
 #P UB3LYP/6-311++G(d,p) SCRF=(PCM,Solvent=n,n-DiMethylFormamide)
 ----------------------------------------------------------------

 ------------------
 Quinone PCM in DMF
 ------------------
 Symbolic Z-matrix:
 Charge =  0 Multiplicity = 1

                         Standard orientation:
 ---------------------------------------------------------------------
 Center     Atomic      Atomic             Coordinates (Angstroms)
 Number     Number       Type             X           Y           Z
 ---------------------------------------------------------------------
      1          6           0        0.311595   -1.288442   -0.000040
      2          6           0       -0.952573   -0.705996   -0.000079
      3          6           0       -1.077587    0.692285   -0.000042
      4          6           0        1.454197   -0.490736    0.000055
      5          6           0        1.328017    0.905641   -0.000028
      6          6           0        0.063976    1.489210   -0.000039
      7          6           0        2.798971   -1.138345    0.000272
      8          6           0        4.005548   -0.249993    0.000107
      9          6           0        3.855450    1.088465   -0.000167
     10          6           0        2.545119    1.769670   -0.000002
     11          8           0        2.923332   -2.350979   -0.000290
     12          8           0        2.471308    2.987861   -0.000348
     13          1           0        0.421824   -2.364872   -0.000023
     14          1           0       -0.015770    2.568430   -0.000028
     15         35           0       -2.466416   -1.860657   -0.000057
     16         35           0       -2.771642    1.560103    0.000116
     17          6           0        5.338828   -0.932287    0.000311
     18          1           0        4.713816    1.752748   -0.000373
     19          1           0        5.436411   -1.583006   -0.873003
     20          1           0        5.437558   -1.580026    0.875750
     21          1           0        6.151823   -0.205748   -0.001347
 ---------------------------------------------------------------------

 SCF Done:  E(UB3LYP) =  -5721.67599224     A.U. after   15 cycles

 The electronic state is 1-A.
 Alpha  occ. eigenvalues -- -482.85250-482.85239 -62.50526 -62.50515 -56.32574
 Alpha  occ. eigenvalues --  -56.32563 -56.32178 -56.32167 -56.32147 -56.32137
 Alpha  occ. eigenvalues --  -19.14540 -19.14185 -10.29334 -10.29095 -10.27022
 Alpha  occ. eigenvalues --  -10.26968 -10.22736 -10.22307 -10.22217 -10.21955
 Alpha  occ. eigenvalues --  -10.21927 -10.20974 -10.18119  -8.71497  -8.71486
 Alpha  occ. eigenvalues --   -6.54673  -6.54662  -6.53354  -6.53342  -6.53272
 Alpha  occ. eigenvalues --   -6.53261  -2.65761  -2.65750  -2.65395  -2.65384
 Alpha  occ. eigenvalues --   -2.65335  -2.65324  -2.64285  -2.64284  -2.64273
 Alpha  occ. eigenvalues --   -2.64273  -1.07881  -1.07412  -0.92287  -0.86813
 Alpha  occ. eigenvalues --   -0.83506  -0.83460  -0.77897  -0.76755  -0.73217
 Alpha  occ. eigenvalues --   -0.68976  -0.65869  -0.63116  -0.60062  -0.55251
 Alpha  occ. eigenvalues --   -0.52917  -0.51921  -0.48049  -0.47539  -0.47147
 Alpha  occ. eigenvalues --   -0.46927  -0.46704  -0.43668  -0.43592  -0.42331
 Alpha  occ. eigenvalues --   -0.42113  -0.40845  -0.40575  -0.39549  -0.39028
 Alpha  occ. eigenvalues --   -0.34117  -0.34070  -0.32804  -0.30234  -0.30049
 Alpha  occ. eigenvalues --   -0.29740  -0.28368  -0.28247  -0.27100
 Alpha virt. eigenvalues --   -0.13384  -0.07303  -0.05058  -0.04674  -0.00780
 Alpha virt. eigenvalues --   -0.00524   0.00327   0.01140   0.01288   0.02554
 Alpha virt. eigenvalues --    0.02721   0.03146   0.03644   0.04003   0.04400

  Beta  occ. eigenvalues -- -482.85250-482.85239 -62.50526 -62.50515 -56.32574
  Beta  occ. eigenvalues --  -56.32563 -56.32178 -56.32167 -56.32147 -56.32137
  Beta  occ. eigenvalues --  -19.14540 -19.14185 -10.29334 -10.29095 -10.27022
  Beta  occ. eigenvalues --  -10.26968 -10.22736 -10.22307 -10.22217 -10.21955
  Beta  occ. eigenvalues --  -10.21927 -10.20974 -10.18119  -8.71497  -8.71486
  Beta  occ. eigenvalues --   -6.54673  -6.54662  -6.53354  -6.53342  -6.53272
  Beta  occ. eigenvalues --   -6.53261  -2.65761  -2.65750  -2.65395  -2.65384
  Beta  occ. eigenvalues --   -2.65335  -2.65324  -2.64285  -2.64284  -2.64273
  Beta  occ. eigenvalues --   -2.64273  -1.07881  -1.07412  -0.92287  -0.86813
  Beta  occ. eigenvalues --   -0.83506  -0.83460  -0.77897  -0.76755  -0.73217
  Beta  occ. eigenvalues --   -0.68976  -0.65869  -0.63116  -0.60062  -0.55251
  Beta  occ. eigenvalues --   -0.52917  -0.51921  -0.48049  -0.47539  -0.47147
  Beta  occ. eigenvalues --   -0.46927  -0.46704  -0.43668  -0.43592  -0.42331
  Beta  occ. eigenvalues --   -0.42113  -0.40845  -0.40575  -0.39549  -0.39028
  Beta  occ. eigenvalues --   -0.34117  -0.34070  -0.32804  -0.30234  -0.30049
  Beta  occ. eigenvalues --   -0.29740  -0.28368  -0.28247  -0.27100
  Beta virt. eigenvalues --   -0.13384  -0.07303  -0.05058  -0.04674  -0.00780
  Beta virt. eigenvalues --   -0.00524   0.00327   0.01140   0.01288   0.02554
  Beta virt. eigenvalues --    0.02721   0.03146   0.03644   0.04003   0.04400

 Mulliken charges and spin densities:
               1          2
     1  C   -0.002161  -0.000000
     2  C    0.037308  -0.000000
     3  C   -0.027275   0.000000
     4  C    0.266773  -0.000000
     5  C    0.780231   0.000000
     6  C   -0.057253   0.000000
     7  C   -0.650931   0.000000
     8  C    0.797168  -0.000000
     9  C   -0.398537   0.000000
    10  C   -0.973648  -0.000000
    11  O   -0.251892   0.000000
    12  O   -0.279751   0.000000
    13  H    0.247139   0.000000
    14  H    0.239154  -0.000000
    15  Br  -0.105464   0.000000
    16  Br  -0.110210   0.000000
    17  C   -0.282508   0.000000
    18  H    0.205979  -0.000000
    19  H    0.193874   0.000000
    20  H    0.194084   0.000000
    21  H    0.177922   0.000000
 Sum of Mulliken charges =  -0.00000  -0.00000

 Dipole moment (field-independent basis, Debye):
    X=              1.9764    Y=             -0.7030    Z=              0.0022  Tot=              2.0977
 Quadrupole moment (field-independent basis, Debye-Ang):
   XX=            -95.3803   YY=           -127.3715   ZZ=           -111.2770
   XY=             -1.2004   XZ=              0.0069   YZ=             -0.0006

 Normal termination of Gaussian 16 at Sun Jan 21 07:53:03 2024.
