 Gaussian 16, Revision A.03,
 Gaussian 16:  ES64L-G16RevA.03 25-Dec-2016

 --------------------------------------
 #P UB3LYP/6-311++G(d,p) nosym opt freq
 --------------------------------------

 --------
 Oxidized
 --------
 Symbolic Z-matrix:
 Charge =  0 Multiplicity = 1

 SCF Done:  E(UB3LYP) =  -1144.77317397     A.U. after   16 cycles
 SCF Done:  E(UB3LYP) =  -1144.81149367     A.U. after   14 cycles
 SCF Done:  E(UB3LYP) =  -1144.82470364     A.U. after   15 cycles
 SCF Done:  E(UB3LYP) =  -1144.82820411     A.U. after   13 cycles
 SCF Done:  E(UB3LYP) =  -1144.82848764     A.U. after   13 cycles
 SCF Done:  E(UB3LYP) =  -1144.82857944     A.U. after   13 cycles
 SCF Done:  E(UB3LYP) =  -1144.82897239     A.U. after   12 cycles
 SCF Done:  E(UB3LYP) =  -1144.82907583     A.U. after   13 cycles
 SCF Done:  E(UB3LYP) =  -1144.82909654     A.U. after   13 cycles
 SCF Done:  E(UB3LYP) =  -1144.82918795     A.U. after   13 cycles
 SCF Done:  E(UB3LYP) =  -1144.82935198     A.U. after   10 cycles
 SCF Done:  E(UB3LYP) =  -1144.82935278     A.U. after    9 cycles
 SCF Done:  E(UB3LYP) =  -1144.82935309     A.U. after    9 cycles
 SCF Done:  E(UB3LYP) =  -1144.82935334     A.U. after   11 cycles
 SCF Done:  E(UB3LYP) =  -1144.82935353     A.U. after    9 cycles
 SCF Done:  E(UB3LYP) =  -1144.82935390     A.U. after    9 cycles
 SCF Done:  E(UB3LYP) =  -1144.82935427     A.U. after   11 cycles
 SCF Done:  E(UB3LYP) =  -1144.82935437     A.U. after    9 cycles
 SCF Done:  E(UB3LYP) =  -1144.82935446     A.U. after    9 cycles
 Optimization completed.
    -- Stationary point found.
 Normal termination of Gaussian 16 at Thu Dec 21 12:27:08 2023.

 ----------------------------------------------------------------------
 #P Geom=AllCheck Guess=TCheck SCRF=Check GenChk UB3LYP/6-311++G(d,p) F
 req
 ----------------------------------------------------------------------

 Structure from the checkpoint file:  "145.chk"
 --------
 Oxidized
 --------
 Charge =  0 Multiplicity = 1

                          Input orientation:
 ---------------------------------------------------------------------
 Center     Atomic      Atomic             Coordinates (Angstroms)
 Number     Number       Type             X           Y           Z
 ---------------------------------------------------------------------
      1          6           0       -4.982960   -1.436465   -0.585025
      2          6           0       -3.543341   -1.729835   -0.287967
      3          8           0       -3.096241   -2.259689    0.687419
      4          8           0       -2.748460   -1.307754   -1.340674
      5          6           0       -1.376726   -1.309316   -1.174002
      6          6           0       -0.677336   -2.314866   -1.831271
      7          6           0        0.704378   -2.345829   -1.781021
      8          6           0        1.398570   -1.371419   -1.073259
      9          8           0        2.777421   -1.431863   -1.139933
     10          6           0        3.474086   -1.885448   -0.032134
     11          6           0        4.943220   -1.658181   -0.223880
     12          8           0        2.933991   -2.390949    0.908498
     13          6           0        0.719430   -0.332949   -0.414092
     14          6           0        1.479402    0.744077    0.297217
     15          8           0        2.688777    0.694055    0.453135
     16          6           0        0.714261    1.915307    0.807008
     17          6           0        1.414307    2.989970    1.366386
     18          6           0        0.723561    4.089096    1.859692
     19          6           0       -0.673651    4.119855    1.809765
     20          6           0       -1.375062    3.051368    1.266690
     21          6           0       -0.684768    1.946122    0.756975
     22          6           0       -1.462242    0.808938    0.191809
     23          8           0       -2.680682    0.812238    0.260896
     24          6           0       -0.701430   -0.301357   -0.465433
     25          1           0       -5.135696   -0.359741   -0.478885
     26          1           0       -5.616106   -1.968975    0.121618
     27          1           0       -5.232297   -1.712969   -1.610636
     28          1           0       -1.236132   -3.065736   -2.375623
     29          1           0        1.267080   -3.121902   -2.284467
     30          1           0        5.136635   -0.589540   -0.103176
     31          1           0        5.253106   -1.945525   -1.229786
     32          1           0        5.498893   -2.218962    0.524824
     33          1           0        2.494994    2.939838    1.404892
     34          1           0        1.268977    4.922499    2.287581
     35          1           0       -1.211060    4.977085    2.198967
     36          1           0       -2.456900    3.048823    1.227893
 ---------------------------------------------------------------------

 SCF Done:  E(UB3LYP) =  -1144.82935446     A.U. after    1 cycles

 Alpha  occ. eigenvalues --  -19.18298 -19.18296 -19.13177 -19.13176 -19.12319
 Alpha  occ. eigenvalues --  -19.12318 -10.31632 -10.31631 -10.28793 -10.28792
 Alpha  occ. eigenvalues --  -10.27050 -10.27049 -10.22610 -10.22565 -10.21244
 Alpha  occ. eigenvalues --  -10.21192 -10.21169 -10.21109 -10.20546 -10.20494
 Alpha  occ. eigenvalues --  -10.20213 -10.20212 -10.18414 -10.18413  -1.12641
 Alpha  occ. eigenvalues --   -1.12592  -1.06824  -1.06642  -1.04354  -1.04297
 Alpha  occ. eigenvalues --   -0.90246  -0.88977  -0.82404  -0.80482  -0.78301
 Alpha  occ. eigenvalues --   -0.78269  -0.76953  -0.74608  -0.70243  -0.68339
 Alpha  occ. eigenvalues --   -0.66082  -0.65755  -0.61576  -0.60949  -0.57437
 Alpha  occ. eigenvalues --   -0.57350  -0.54001  -0.52199  -0.50695  -0.50392
 Alpha  occ. eigenvalues --   -0.50310  -0.49972  -0.49768  -0.48970  -0.48017
 Alpha  occ. eigenvalues --   -0.47377  -0.46228  -0.45733  -0.45648  -0.45385
 Alpha  occ. eigenvalues --   -0.45251  -0.43757  -0.42689  -0.42330  -0.42265
 Alpha  occ. eigenvalues --   -0.41676  -0.40759  -0.40492  -0.39156  -0.39068
 Alpha  occ. eigenvalues --   -0.38817  -0.38527  -0.37489  -0.36890  -0.33742
 Alpha  occ. eigenvalues --   -0.33120  -0.29825  -0.29625  -0.29249  -0.28736
 Alpha  occ. eigenvalues --   -0.28367  -0.28280  -0.27509  -0.26703
 Alpha virt. eigenvalues --   -0.12169  -0.07856  -0.04610  -0.03291  -0.01138
 Alpha virt. eigenvalues --   -0.00870  -0.00639  -0.00536  -0.00213   0.00655
 Alpha virt. eigenvalues --    0.01309   0.01923   0.02655   0.02833   0.03118

  Beta  occ. eigenvalues --  -19.18298 -19.18296 -19.13177 -19.13176 -19.12319
  Beta  occ. eigenvalues --  -19.12318 -10.31632 -10.31631 -10.28793 -10.28792
  Beta  occ. eigenvalues --  -10.27050 -10.27049 -10.22610 -10.22565 -10.21244
  Beta  occ. eigenvalues --  -10.21192 -10.21169 -10.21109 -10.20546 -10.20494
  Beta  occ. eigenvalues --  -10.20213 -10.20212 -10.18414 -10.18413  -1.12641
  Beta  occ. eigenvalues --   -1.12592  -1.06824  -1.06642  -1.04354  -1.04297
  Beta  occ. eigenvalues --   -0.90246  -0.88977  -0.82404  -0.80482  -0.78301
  Beta  occ. eigenvalues --   -0.78269  -0.76953  -0.74608  -0.70243  -0.68339
  Beta  occ. eigenvalues --   -0.66082  -0.65755  -0.61576  -0.60949  -0.57437
  Beta  occ. eigenvalues --   -0.57350  -0.54001  -0.52199  -0.50695  -0.50392
  Beta  occ. eigenvalues --   -0.50310  -0.49972  -0.49768  -0.48970  -0.48017
  Beta  occ. eigenvalues --   -0.47377  -0.46228  -0.45733  -0.45648  -0.45385
  Beta  occ. eigenvalues --   -0.45251  -0.43757  -0.42689  -0.42330  -0.42265
  Beta  occ. eigenvalues --   -0.41676  -0.40759  -0.40492  -0.39156  -0.39068
  Beta  occ. eigenvalues --   -0.38817  -0.38527  -0.37489  -0.36890  -0.33742
  Beta  occ. eigenvalues --   -0.33120  -0.29825  -0.29625  -0.29249  -0.28736
  Beta  occ. eigenvalues --   -0.28367  -0.28280  -0.27509  -0.26703
  Beta virt. eigenvalues --   -0.12169  -0.07856  -0.04610  -0.03291  -0.01138
  Beta virt. eigenvalues --   -0.00870  -0.00639  -0.00536  -0.00213   0.00655
  Beta virt. eigenvalues --    0.01309   0.01923   0.02655   0.02833   0.03118

 Mulliken charges and spin densities:
               1          2
     1  C   -0.476612  -0.000000
     2  C    0.005528   0.000000
     3  O   -0.175399  -0.000000
     4  O    0.023581   0.000000
     5  C   -0.405644  -0.000000
     6  C    0.108376   0.000000
     7  C    0.108200  -0.000000
     8  C   -0.405787   0.000000
     9  O    0.023576   0.000000
    10  C    0.005070   0.000000
    11  C   -0.476507  -0.000000
    12  O   -0.175322   0.000000
    13  C    0.750375   0.000000
    14  C   -0.477976  -0.000000
    15  O   -0.202190   0.000000
    16  C    0.100725  -0.000000
    17  C   -0.018700   0.000000
    18  C   -0.323086  -0.000000
    19  C   -0.323233  -0.000000
    20  C   -0.019167   0.000000
    21  C    0.100195  -0.000000
    22  C   -0.478367  -0.000000
    23  O   -0.202269   0.000000
    24  C    0.752902   0.000000
    25  H    0.194056   0.000000
    26  H    0.169460   0.000000
    27  H    0.165669  -0.000000
    28  H    0.201107   0.000000
    29  H    0.201159   0.000000
    30  H    0.194109   0.000000
    31  H    0.165671   0.000000
    32  H    0.169408   0.000000
    33  H    0.181264   0.000000
    34  H    0.179280  -0.000000
    35  H    0.179265  -0.000000
    36  H    0.181283  -0.000000
 Sum of Mulliken charges =  -0.00000   0.00000

 Dipole moment (field-independent basis, Debye):
    X=              0.1582    Y=              2.4551    Z=             -2.8179  Tot=              3.7408
 Quadrupole moment (field-independent basis, Debye-Ang):
   XX=           -123.6743   YY=           -123.7915   ZZ=           -136.6921
   XY=             -0.7387   XZ=              0.9218   YZ=             19.7910

  Exact polarizability: 280.592  -2.838 251.903   5.452  60.885 167.418
 Approx polarizability: 452.075  -4.741 373.728   8.061  83.338 279.505

                      1                      2                      3
                      A                      A                      A
 Frequencies --     21.6131                23.8788                46.0862
 Red. masses --      7.9860                 8.7109                 5.5095
 Frc consts  --      0.0022                 0.0029                 0.0069
 IR Inten    --      3.7974                 0.0519                 1.0419

                      4                      5                      6
                      A                      A                      A
 Frequencies --     69.2315                73.2467                81.4153
 Red. masses --      4.8309                 4.9457                 2.6535
 Frc consts  --      0.0136                 0.0156                 0.0104
 IR Inten    --      2.2599                 0.2072                 0.0970

                      7                      8                      9
                      A                      A                      A
 Frequencies --     82.7883               102.2634               103.5013
 Red. masses --      2.5022                 1.2090                 1.2750
 Frc consts  --      0.0101                 0.0074                 0.0080
 IR Inten    --      7.1042                 0.0215                 0.9589

                     10                     11                     12
                      A                      A                      A
 Frequencies --    114.3272               126.0374               152.8227
 Red. masses --      5.5673                 8.3932                 7.2721
 Frc consts  --      0.0429                 0.0786                 0.1001
 IR Inten    --      0.4669                 1.9546                 0.2340

                     13                     14                     15
                      A                      A                      A
 Frequencies --    180.2370               214.0148               251.3040
 Red. masses --      7.0329                 6.6924                 7.4882
 Frc consts  --      0.1346                 0.1806                 0.2786
 IR Inten    --      2.0411                 0.4049                 0.4054

                     16                     17                     18
                      A                      A                      A
 Frequencies --    275.8146               295.5058               314.9686
 Red. masses --      3.8807                 5.6506                 7.6697
 Frc consts  --      0.1739                 0.2907                 0.4483
 IR Inten    --      6.3243                 1.2020                 3.6622

                     19                     20                     21
                      A                      A                      A
 Frequencies --    339.8918               370.2265               407.8828
 Red. masses --      6.4518                 5.6049                11.9926
 Frc consts  --      0.4392                 0.4526                 1.1755
 IR Inten    --      0.1357                 0.5156                14.5598

                     22                     23                     24
                      A                      A                      A
 Frequencies --    416.3314               420.2659               432.5675
 Red. masses --      5.0288                 4.3942                 5.4656
 Frc consts  --      0.5136                 0.4573                 0.6026
 IR Inten    --      2.6799                 4.5007                 0.0086

                     25                     26                     27
                      A                      A                      A
 Frequencies --    434.7195               484.4820               487.5042
 Red. masses --      5.4827                 8.9822                 6.1894
 Frc consts  --      0.6105                 1.2422                 0.8667
 IR Inten    --      6.1912                 1.2198                 0.0004

                     28                     29                     30
                      A                      A                      A
 Frequencies --    501.2652               523.3681               563.4867
 Red. masses --      4.7280                 4.9721                 5.1755
 Frc consts  --      0.6999                 0.8024                 0.9682
 IR Inten    --      1.1346                 6.9748                16.7489

                     31                     32                     33
                      A                      A                      A
 Frequencies --    572.3735               577.7597               607.8604
 Red. masses --      3.2076                 2.9991                 4.5097
 Frc consts  --      0.6191                 0.5898                 0.9818
 IR Inten    --      9.8598                13.2669                18.2362

                     34                     35                     36
                      A                      A                      A
 Frequencies --    641.1308               663.5881               667.1877
 Red. masses --      6.2301                 6.5002                 5.1722
 Frc consts  --      1.5088                 1.6864                 1.3565
 IR Inten    --     12.4720                 6.9931                 1.2990

                     37                     38                     39
                      A                      A                      A
 Frequencies --    696.6421               714.7797               733.4776
 Red. masses --      4.2786                 6.6052                 6.4968
 Frc consts  --      1.2234                 1.9883                 2.0593
 IR Inten    --     16.4184                 0.3001                 4.3206

                     40                     41                     42
                      A                      A                      A
 Frequencies --    744.9386               782.1539               812.9031
 Red. masses --      2.0123                 5.9948                 7.1050
 Frc consts  --      0.6579                 2.1608                 2.7663
 IR Inten    --     27.3882                 1.0565                 7.3153

                     43                     44                     45
                      A                      A                      A
 Frequencies --    813.6553               823.2647               866.5347
 Red. masses --      2.2972                 2.2369                 6.4474
 Frc consts  --      0.8960                 0.8933                 2.8524
 IR Inten    --     28.2995                 4.3488                11.9942

                     46                     47                     48
                      A                      A                      A
 Frequencies --    883.8660               914.0545               915.6870
 Red. masses --      3.7129                 1.3977                 4.3408
 Frc consts  --      1.7090                 0.6880                 2.1444
 IR Inten    --     52.0767                 0.1244               116.0697

                     49                     50                     51
                      A                      A                      A
 Frequencies --    922.1312               952.5355               983.0180
 Red. masses --      6.9096                 5.1237                 1.4458
 Frc consts  --      3.4617                 2.7390                 0.8232
 IR Inten    --     15.8568                51.8220                 4.1416

                     52                     53                     54
                      A                      A                      A
 Frequencies --   1002.1833              1008.8749              1017.1036
 Red. masses --      1.3805                 2.1234                 1.3244
 Frc consts  --      0.8169                 1.2734                 0.8072
 IR Inten    --      0.6953                32.9882                 0.0096

                     55                     56                     57
                      A                      A                      A
 Frequencies --   1019.3608              1049.4885              1060.8249
 Red. masses --      2.1194                 2.7046                 1.7574
 Frc consts  --      1.2975                 1.7552                 1.1652
 IR Inten    --    232.9121                11.5477                13.7079

                     58                     59                     60
                      A                      A                      A
 Frequencies --   1060.9012              1084.8596              1115.2174
 Red. masses --      1.7580                 2.1815                 2.3355
 Frc consts  --      1.1658                 1.5127                 1.7114
 IR Inten    --      3.8643                11.1944                 0.2361

                     61                     62                     63
                      A                      A                      A
 Frequencies --   1172.7638              1182.3138              1184.6760
 Red. masses --      1.3298                 3.5229                 1.2238
 Frc consts  --      1.0776                 2.9015                 1.0119
 IR Inten    --      4.1326               931.1657                53.1422

                     64                     65                     66
                      A                      A                      A
 Frequencies --   1188.6512              1195.5165              1249.7545
 Red. masses --      2.3821                 3.1601                 7.3390
 Frc consts  --      1.9830                 2.6611                 6.7537
 IR Inten    --     29.0786               267.6644                 2.2125

                     67                     68                     69
                      A                      A                      A
 Frequencies --   1255.5493              1260.4188              1280.1347
 Red. masses --      1.8392                 2.6140                 5.5843
 Frc consts  --      1.7082                 2.4468                 5.3918
 IR Inten    --      2.6183                40.2159               388.4330

                     70                     71                     72
                      A                      A                      A
 Frequencies --   1317.4863              1342.8817              1362.5619
 Red. masses --      2.7214                 9.4566                 7.8408
 Frc consts  --      2.7832                10.0476                 8.5767
 IR Inten    --      3.9407               196.1469                 3.0595

                     73                     74                     75
                      A                      A                      A
 Frequencies --   1394.7033              1395.3545              1422.9017
 Red. masses --      1.3032                 1.3128                 6.4111
 Frc consts  --      1.4936                 1.5060                 7.6477
 IR Inten    --    135.0921                 2.1597                69.4813

                     76                     77                     78
                      A                      A                      A
 Frequencies --   1472.3824              1473.0634              1473.1070
 Red. masses --      1.6405                 1.0583                 1.1066
 Frc consts  --      2.0954                 1.3530                 1.4149
 IR Inten    --      7.9645                21.2645                11.4730

                     79                     80                     81
                      A                      A                      A
 Frequencies --   1475.6836              1477.2213              1482.7130
 Red. masses --      1.0483                 1.3980                 2.5761
 Frc consts  --      1.3450                 1.7974                 3.3368
 IR Inten    --     16.6145                 0.7475                 6.0371

                     82                     83                     84
                      A                      A                      A
 Frequencies --   1510.1309              1610.0460              1613.8493
 Red. masses --      2.5865                 7.1111                 6.7775
 Frc consts  --      3.4753                10.8609                10.4003
 IR Inten    --      1.4947                89.4319                 4.4365

                     85                     86                     87
                      A                      A                      A
 Frequencies --   1622.5494              1629.2220              1716.9098
 Red. masses --      7.5405                 5.7619                12.3530
 Frc consts  --     11.6962                 9.0111                21.4544
 IR Inten    --      3.1960                67.4450                12.5207

                     88                     89                     90
                      A                      A                      A
 Frequencies --   1724.0115              1834.9402              1838.3972
 Red. masses --     12.4277                11.8803                11.8410
 Frc consts  --     21.7631                23.5679                23.5785
 IR Inten    --    427.6161                26.4139               418.3946

                     91                     92                     93
                      A                      A                      A
 Frequencies --   3053.7998              3053.8192              3119.1065
 Red. masses --      1.0355                 1.0355                 1.0997
 Frc consts  --      5.6897                 5.6897                 6.3037
 IR Inten    --      2.2950                 1.9976                 3.4218

                     94                     95                     96
                      A                      A                      A
 Frequencies --   3119.1492              3156.6513              3156.7376
 Red. masses --      1.0997                 1.1041                 1.1041
 Frc consts  --      6.3037                 6.4819                 6.4821
 IR Inten    --      3.8849                 6.3927                 6.9566

                     97                     98                     99
                      A                      A                      A
 Frequencies --   3171.4158              3185.9484              3193.4481
 Red. masses --      1.0872                 1.0923                 1.0889
 Frc consts  --      6.4426                 6.5324                 6.5427
 IR Inten    --      3.0308                11.2292                 2.0603

                    100                    101                    102
                      A                      A                      A
 Frequencies --   3204.2616              3206.4949              3206.9221
 Red. masses --      1.0924                 1.0944                 1.0962
 Frc consts  --      6.6080                 6.6298                 6.6425
 IR Inten    --      0.2114                11.3072                 0.5489

 - Thermochemistry -
 -------------------
 Temperature   298.150 Kelvin.  Pressure   1.00000 Atm.
 Atom     1 has atomic number  6 and mass  12.00000

 Molecular mass:   324.06339 amu.
 Principal axes and moments of inertia in atomic units:
                           1         2         3
     Eigenvalues --  6244.739697752.00808**********
           X            0.99910   0.00574  -0.04205
           Y           -0.02168   0.92074  -0.38958
           Z            0.03648   0.39014   0.92003
 This molecule is an asymmetric top.
 Rotational symmetry number  1.
 Warning -- assumption of classical behavior for rotation
           may cause significant error
 Rotational temperatures (Kelvin)      0.01387     0.01117     0.00664
 Rotational constants (GHZ):           0.28900     0.23281     0.13837
 Zero-point vibrational energy     685502.4 (Joules/Mol)
                                  163.83901 (Kcal/Mol)
 Warning -- explicit consideration of  33 degrees of freedom as
           vibrations may cause significant error
 Vibrational temperatures:     31.10    34.36    66.31    99.61   105.39
          (Kelvin)            117.14   119.11   147.13   148.92   164.49
                              181.34   219.88   259.32   307.92   361.57
                              396.84   425.17   453.17   489.03   532.67
                              586.85   599.01   604.67   622.37   625.46
                              697.06   701.41   721.21   753.01   810.73
                              823.52   831.27   874.58   922.44   954.76
                              959.93  1002.31  1028.41  1055.31  1071.80
                             1125.35  1169.59  1170.67  1184.49  1246.75
                             1271.69  1315.12  1317.47  1326.74  1370.49
                             1414.34  1441.92  1451.55  1463.39  1466.63
                             1509.98  1526.29  1526.40  1560.87  1604.55
                             1687.35  1701.09  1704.48  1710.20  1720.08
                             1798.12  1806.46  1813.46  1841.83  1895.57
                             1932.11  1960.42  2006.67  2007.60  2047.24
                             2118.43  2119.41  2119.47  2123.18  2125.39
                             2133.29  2172.74  2316.50  2321.97  2334.49
                             2344.09  2470.25  2480.47  2640.07  2645.04
                             4393.74  4393.76  4487.70  4487.76  4541.72
                             4541.84  4562.96  4583.87  4594.66  4610.22
                             4613.43  4614.05

 Zero-point correction=                           0.261094 (Hartree/Particle)
 Thermal correction to Energy=                    0.281798
 Thermal correction to Enthalpy=                  0.282742
 Thermal correction to Gibbs Free Energy=         0.209453
 Sum of electronic and zero-point Energies=          -1144.568260
 Sum of electronic and thermal Energies=             -1144.547557
 Sum of electronic and thermal Enthalpies=           -1144.546613
 Sum of electronic and thermal Free Energies=        -1144.619902

                     E (Thermal)             CV                S
                      KCal/Mol        Cal/Mol-Kelvin    Cal/Mol-Kelvin
 Total                  176.831             77.525            154.250
 Electronic               0.000              0.000              0.000
 Translational            0.889              2.981             43.223
 Rotational               0.889              2.981             34.800
 Vibrational            175.053             71.563             76.227
 Vibration     1          0.593              1.985              6.480
 Vibration     2          0.593              1.985              6.282
 Vibration     3          0.595              1.979              4.979
 Vibration     4          0.598              1.969              4.175
 Vibration     5          0.599              1.967              4.064
 Vibration     6          0.600              1.962              3.856
 Vibration     7          0.600              1.961              3.824
 Vibration     8          0.604              1.947              3.411
 Vibration     9          0.605              1.946              3.387
 Vibration    10          0.607              1.938              3.194
 Vibration    11          0.611              1.927              3.006
 Vibration    12          0.619              1.900              2.637
 Vibration    13          0.629              1.867              2.326
 Vibration    14          0.644              1.820              2.009
 Vibration    15          0.663              1.761              1.721
 Vibration    16          0.677              1.718              1.559
 Vibration    17          0.690              1.682              1.442
 Vibration    18          0.702              1.645              1.336
 Vibration    19          0.720              1.596              1.213
 Vibration    20          0.742              1.533              1.079
 Vibration    21          0.772              1.453              0.934
 Vibration    22          0.780              1.435              0.905
 Vibration    23          0.783              1.426              0.891
 Vibration    24          0.793              1.399              0.850
 Vibration    25          0.795              1.395              0.843
 Vibration    26          0.841              1.284              0.698
 Vibration    27          0.843              1.278              0.690
 Vibration    28          0.857              1.247              0.655
 Vibration    29          0.878              1.198              0.602
 Vibration    30          0.919              1.110              0.517
 Vibration    31          0.929              1.091              0.500
 Vibration    32          0.934              1.079              0.490
 Vibration    33          0.967              1.015              0.436

                           ! Non-Optimized Parameters !
 Normal termination of Gaussian 16 at Thu Dec 21 17:10:12 2023.
