 Gaussian 16, Revision A.03,
 Gaussian 16:  ES64L-G16RevA.03 25-Dec-2016

 ----------------------------------------------------------------
 #P UB3LYP/6-311++G(d,p) SCRF=(PCM,Solvent=n,n-DiMethylFormamide)
 ----------------------------------------------------------------

 ------------------
 Quinone PCM in DMF
 ------------------
 Symbolic Z-matrix:
 Charge =  0 Multiplicity = 1

                         Standard orientation:
 ---------------------------------------------------------------------
 Center     Atomic      Atomic             Coordinates (Angstroms)
 Number     Number       Type             X           Y           Z
 ---------------------------------------------------------------------
      1          8           0       -1.234931    2.278255    0.673661
      2          6           0       -0.670800    1.248736    0.301199
      3          6           0        0.759188    1.189504    0.153751
      4          6           0        1.465720    0.030183   -0.063501
      5          7           0        2.821516    0.004029   -0.152553
      6          6           0        3.545513    1.281497   -0.244694
      7          6           0        4.972959    1.068435   -0.745939
      8          6           0        5.792585    0.182032    0.211594
      9          6           0        4.881890   -0.853650    0.903625
     10          6           0        3.654239   -1.203358    0.057765
     11          6           0        0.670883   -1.248441   -0.303666
     12          8           0        1.234955   -2.277629   -0.677097
     13          6           0       -0.759040   -1.189299   -0.155775
     14          6           0       -1.465557   -0.030003    0.061799
     15          7           0       -2.821318   -0.004050    0.151497
     16          6           0       -3.545079   -1.281562    0.244882
     17          6           0       -4.971584   -1.068517    0.748859
     18          6           0       -5.793094   -0.182194   -0.207102
     19          6           0       -4.883609    0.852918   -0.901542
     20          6           0       -3.654335    1.203224   -0.058296
     21          1           0        1.252687    2.130521    0.351298
     22          1           0        3.555742    1.789856    0.731130
     23          1           0        2.998984    1.929018   -0.934822
     24          1           0        5.447389    2.044401   -0.877933
     25          1           0        4.925535    0.609612   -1.738435
     26          1           0        6.586141   -0.320393   -0.348964
     27          1           0        6.289242    0.798966    0.966403
     28          1           0        5.431205   -1.775198    1.114810
     29          1           0        4.538158   -0.469813    1.869835
     30          1           0        3.055169   -1.961506    0.549235
     31          1           0        3.953284   -1.624705   -0.907992
     32          1           0       -1.252653   -2.130225   -0.353510
     33          1           0       -3.557081   -1.789928   -0.730911
     34          1           0       -2.997251   -1.929028    0.934016
     35          1           0       -5.445710   -2.044495    0.881870
     36          1           0       -4.922182   -0.609615    1.741227
     37          1           0       -6.585205    0.320720    0.355059
     38          1           0       -6.291659   -0.799185   -0.960604
     39          1           0       -5.433263    1.774348   -1.112338
     40          1           0       -4.541768    0.468364   -1.868141
     41          1           0       -3.056162    1.960828   -0.551730
     42          1           0       -3.951451    1.625576    0.907614
 ---------------------------------------------------------------------

 SCF Done:  E(UB3LYP) =  -883.129038168     A.U. after   15 cycles

 The electronic state is 1-A.
 Alpha  occ. eigenvalues --  -19.10874 -19.10874 -14.36202 -14.36201 -10.26556
 Alpha  occ. eigenvalues --  -10.26556 -10.24139 -10.24138 -10.21099 -10.21099
 Alpha  occ. eigenvalues --  -10.20587 -10.20587 -10.17414 -10.17414 -10.17157
 Alpha  occ. eigenvalues --  -10.17157 -10.16897 -10.16896 -10.16719 -10.16718
 Alpha  occ. eigenvalues --   -1.04599  -1.04338  -0.96992  -0.96986  -0.84141
 Alpha  occ. eigenvalues --   -0.81900  -0.79461  -0.77002  -0.76854  -0.74839
 Alpha  occ. eigenvalues --   -0.70451  -0.68485  -0.65737  -0.65038  -0.63711
 Alpha  occ. eigenvalues --   -0.60364  -0.58634  -0.55384  -0.54493  -0.53348
 Alpha  occ. eigenvalues --   -0.52208  -0.52205  -0.50697  -0.50184  -0.46050
 Alpha  occ. eigenvalues --   -0.45911  -0.45059  -0.45026  -0.44351  -0.43146
 Alpha  occ. eigenvalues --   -0.42988  -0.42964  -0.42738  -0.41827  -0.41498
 Alpha  occ. eigenvalues --   -0.41246  -0.40061  -0.39142  -0.38730  -0.38458
 Alpha  occ. eigenvalues --   -0.37665  -0.37501  -0.34987  -0.34729  -0.33557
 Alpha  occ. eigenvalues --   -0.33541  -0.32656  -0.32589  -0.31094  -0.31024
 Alpha  occ. eigenvalues --   -0.26565  -0.26143  -0.23103  -0.21464
 Alpha virt. eigenvalues --   -0.10232  -0.01132  -0.00615   0.00145   0.00404
 Alpha virt. eigenvalues --    0.01023   0.01075   0.01221   0.01585   0.02078
 Alpha virt. eigenvalues --    0.02327   0.03108   0.03494   0.03562   0.04175

  Beta  occ. eigenvalues --  -19.10874 -19.10874 -14.36202 -14.36201 -10.26556
  Beta  occ. eigenvalues --  -10.26556 -10.24139 -10.24138 -10.21099 -10.21099
  Beta  occ. eigenvalues --  -10.20587 -10.20587 -10.17414 -10.17414 -10.17157
  Beta  occ. eigenvalues --  -10.17157 -10.16897 -10.16896 -10.16719 -10.16718
  Beta  occ. eigenvalues --   -1.04599  -1.04338  -0.96992  -0.96986  -0.84141
  Beta  occ. eigenvalues --   -0.81900  -0.79461  -0.77002  -0.76854  -0.74839
  Beta  occ. eigenvalues --   -0.70451  -0.68485  -0.65737  -0.65038  -0.63711
  Beta  occ. eigenvalues --   -0.60364  -0.58634  -0.55384  -0.54493  -0.53348
  Beta  occ. eigenvalues --   -0.52208  -0.52205  -0.50697  -0.50184  -0.46050
  Beta  occ. eigenvalues --   -0.45911  -0.45059  -0.45026  -0.44351  -0.43146
  Beta  occ. eigenvalues --   -0.42988  -0.42964  -0.42738  -0.41827  -0.41498
  Beta  occ. eigenvalues --   -0.41246  -0.40061  -0.39142  -0.38730  -0.38458
  Beta  occ. eigenvalues --   -0.37665  -0.37501  -0.34987  -0.34729  -0.33557
  Beta  occ. eigenvalues --   -0.33541  -0.32656  -0.32589  -0.31094  -0.31024
  Beta  occ. eigenvalues --   -0.26565  -0.26143  -0.23103  -0.21464
  Beta virt. eigenvalues --   -0.10232  -0.01132  -0.00615   0.00145   0.00404
  Beta virt. eigenvalues --    0.01023   0.01075   0.01221   0.01585   0.02078
  Beta virt. eigenvalues --    0.02327   0.03108   0.03494   0.03562   0.04175

 Mulliken charges and spin densities:
               1          2
     1  O   -0.337664  -0.000000
     2  C   -0.020894   0.000000
     3  C   -0.026206   0.000000
     4  C   -0.345370  -0.000000
     5  N    0.307030   0.000000
     6  C   -0.135743  -0.000000
     7  C   -0.474123   0.000000
     8  C   -0.527553  -0.000000
     9  C   -0.272232   0.000000
    10  C   -0.236521  -0.000000
    11  C   -0.020817  -0.000000
    12  O   -0.337714  -0.000000
    13  C   -0.025849  -0.000000
    14  C   -0.344063   0.000000
    15  N    0.307016   0.000000
    16  C   -0.136467   0.000000
    17  C   -0.473317   0.000000
    18  C   -0.527931  -0.000000
    19  C   -0.272629  -0.000000
    20  C   -0.235871   0.000000
    21  H    0.239602   0.000000
    22  H    0.187767  -0.000000
    23  H    0.195948  -0.000000
    24  H    0.185056   0.000000
    25  H    0.185089   0.000000
    26  H    0.160304   0.000000
    27  H    0.160608   0.000000
    28  H    0.184100  -0.000000
    29  H    0.172215   0.000000
    30  H    0.204616   0.000000
    31  H    0.193080   0.000000
    32  H    0.239593  -0.000000
    33  H    0.187814   0.000000
    34  H    0.195919   0.000000
    35  H    0.185040  -0.000000
    36  H    0.185065   0.000000
    37  H    0.160323  -0.000000
    38  H    0.160631   0.000000
    39  H    0.184116   0.000000
    40  H    0.172226   0.000000
    41  H    0.204620  -0.000000
    42  H    0.193190   0.000000
 Sum of Mulliken charges =  -0.00000  -0.00000

 Dipole moment (field-independent basis, Debye):
    X=             -0.0008    Y=             -0.0014    Z=              0.0068  Tot=              0.0070
 Quadrupole moment (field-independent basis, Debye-Ang):
   XX=            -77.1381   YY=           -134.4934   ZZ=           -123.0099
   XY=             12.3464   XZ=              3.5625   YZ=             -7.8250

 Normal termination of Gaussian 16 at Wed Jan 24 22:54:22 2024.
