 Gaussian 16, Revision A.03,
 Gaussian 16:  ES64L-G16RevA.03 25-Dec-2016

 --------------------------------------
 #P UB3LYP/6-311++G(d,p) nosym opt freq
 --------------------------------------

 --------
 Oxidized
 --------
 Symbolic Z-matrix:
 Charge =  0 Multiplicity = 1

 SCF Done:  E(UB3LYP) =  -916.892245166     A.U. after   15 cycles
 SCF Done:  E(UB3LYP) =  -916.897466259     A.U. after   13 cycles
 SCF Done:  E(UB3LYP) =  -916.897738596     A.U. after   12 cycles
 SCF Done:  E(UB3LYP) =  -916.897645691     A.U. after   12 cycles
 SCF Done:  E(UB3LYP) =  -916.897795125     A.U. after   12 cycles
 SCF Done:  E(UB3LYP) =  -916.897814824     A.U. after   12 cycles
 SCF Done:  E(UB3LYP) =  -916.897867747     A.U. after   12 cycles
 SCF Done:  E(UB3LYP) =  -916.897713961     A.U. after   16 cycles
 SCF Done:  E(UB3LYP) =  -916.898054106     A.U. after   13 cycles
 SCF Done:  E(UB3LYP) =  -916.898151137     A.U. after   12 cycles
 SCF Done:  E(UB3LYP) =  -916.898208623     A.U. after   12 cycles
 SCF Done:  E(UB3LYP) =  -916.898230440     A.U. after   11 cycles
 SCF Done:  E(UB3LYP) =  -916.898250046     A.U. after   11 cycles
 SCF Done:  E(UB3LYP) =  -916.898253124     A.U. after   10 cycles
 SCF Done:  E(UB3LYP) =  -916.898253336     A.U. after    9 cycles
 SCF Done:  E(UB3LYP) =  -916.898253418     A.U. after    9 cycles
 Optimization completed.
    -- Stationary point found.
 Normal termination of Gaussian 16 at Thu Dec 21 06:36:43 2023.

 ----------------------------------------------------------------------
 #P Geom=AllCheck Guess=TCheck SCRF=Check GenChk UB3LYP/6-311++G(d,p) F
 req
 ----------------------------------------------------------------------

 Structure from the checkpoint file:  "144.chk"
 --------
 Oxidized
 --------
 Charge =  0 Multiplicity = 1

                          Input orientation:
 ---------------------------------------------------------------------
 Center     Atomic      Atomic             Coordinates (Angstroms)
 Number     Number       Type             X           Y           Z
 ---------------------------------------------------------------------
      1          6           0       -3.006128    3.721776    0.143551
      2          6           0       -4.269132    3.145365    0.206088
      3          6           0       -4.407433    1.754878    0.174579
      4          6           0       -1.868666    2.913734    0.049310
      5          6           0       -2.007751    1.514298    0.017518
      6          6           0       -3.282611    0.943833    0.080640
      7          6           0       -0.526044    3.559821   -0.016459
      8          6           0        0.663397    2.661491   -0.110031
      9          6           0        0.523305    1.263481   -0.141503
     10          6           0       -0.817810    0.617853   -0.082478
     11          6           0        1.934293    3.235610   -0.166708
     12          6           0        3.051256    2.418891   -0.254964
     13          6           0        2.929890    1.027963   -0.293360
     14          6           0        1.665078    0.460737   -0.233723
     15          8           0       -0.401103    4.773104    0.005349
     16          8           0       -0.940144   -0.596027   -0.114636
     17          1           0       -3.366650   -0.135546    0.054786
     18          1           0        1.540013   -0.614516   -0.260047
     19          1           0       -2.875611    4.796598    0.166332
     20          1           0        2.038148    4.312780   -0.145273
     21          1           0        3.810669    0.404880   -0.361768
     22          1           0       -5.393563    1.307245    0.223644
     23          8           0        4.279054    3.057831   -0.387554
     24          6           0        5.348526    2.704784    0.407076
     25          6           0        6.540503    3.550709    0.056172
     26          8           0        5.297434    1.853763    1.249539
     27          1           0       -5.147866    3.775946    0.279442
     28          1           0        6.317415    4.601472    0.255828
     29          1           0        6.764363    3.460804   -1.008854
     30          1           0        7.395270    3.234325    0.649733
 ---------------------------------------------------------------------

 SCF Done:  E(UB3LYP) =  -916.898253418     A.U. after    1 cycles

 Alpha  occ. eigenvalues --  -19.19783 -19.13784 -19.13010 -19.12766 -10.33050
 Alpha  occ. eigenvalues --  -10.28246 -10.28043 -10.26887 -10.21512 -10.21142
 Alpha  occ. eigenvalues --  -10.21088 -10.21071 -10.20725 -10.20475 -10.20438
 Alpha  occ. eigenvalues --  -10.20413 -10.20384 -10.20118 -10.20074 -10.19919
 Alpha  occ. eigenvalues --   -1.13716  -1.06454  -1.06141  -1.05674  -0.89971
 Alpha  occ. eigenvalues --   -0.88795  -0.82168  -0.79587  -0.78365  -0.78147
 Alpha  occ. eigenvalues --   -0.76244  -0.69872  -0.67898  -0.66260  -0.62777
 Alpha  occ. eigenvalues --   -0.61694  -0.58934  -0.56692  -0.54391  -0.51982
 Alpha  occ. eigenvalues --   -0.51316  -0.50545  -0.50307  -0.49304  -0.47994
 Alpha  occ. eigenvalues --   -0.46202  -0.45867  -0.45659  -0.45359  -0.45213
 Alpha  occ. eigenvalues --   -0.44871  -0.43515  -0.43359  -0.41731  -0.41587
 Alpha  occ. eigenvalues --   -0.40640  -0.39531  -0.38648  -0.38578  -0.37285
 Alpha  occ. eigenvalues --   -0.36868  -0.34722  -0.30810  -0.29016  -0.28552
 Alpha  occ. eigenvalues --   -0.28417  -0.28050  -0.27379  -0.27262
 Alpha virt. eigenvalues --   -0.11840  -0.07700  -0.04358  -0.03268  -0.01916
 Alpha virt. eigenvalues --   -0.01378  -0.00882   0.00588   0.01158   0.01544
 Alpha virt. eigenvalues --    0.02420   0.02661   0.03298   0.03512   0.03641

  Beta  occ. eigenvalues --  -19.19783 -19.13784 -19.13010 -19.12766 -10.33050
  Beta  occ. eigenvalues --  -10.28246 -10.28043 -10.26887 -10.21512 -10.21142
  Beta  occ. eigenvalues --  -10.21088 -10.21071 -10.20725 -10.20475 -10.20438
  Beta  occ. eigenvalues --  -10.20413 -10.20384 -10.20118 -10.20074 -10.19919
  Beta  occ. eigenvalues --   -1.13716  -1.06454  -1.06141  -1.05674  -0.89971
  Beta  occ. eigenvalues --   -0.88795  -0.82168  -0.79587  -0.78365  -0.78147
  Beta  occ. eigenvalues --   -0.76244  -0.69872  -0.67898  -0.66260  -0.62777
  Beta  occ. eigenvalues --   -0.61694  -0.58934  -0.56692  -0.54391  -0.51982
  Beta  occ. eigenvalues --   -0.51316  -0.50545  -0.50307  -0.49304  -0.47994
  Beta  occ. eigenvalues --   -0.46202  -0.45867  -0.45659  -0.45359  -0.45213
  Beta  occ. eigenvalues --   -0.44871  -0.43515  -0.43359  -0.41731  -0.41587
  Beta  occ. eigenvalues --   -0.40640  -0.39531  -0.38648  -0.38578  -0.37285
  Beta  occ. eigenvalues --   -0.36868  -0.34722  -0.30810  -0.29016  -0.28552
  Beta  occ. eigenvalues --   -0.28417  -0.28050  -0.27379  -0.27262
  Beta virt. eigenvalues --   -0.11840  -0.07700  -0.04358  -0.03268  -0.01916
  Beta virt. eigenvalues --   -0.01378  -0.00882   0.00588   0.01158   0.01544
  Beta virt. eigenvalues --    0.02420   0.02661   0.03298   0.03512   0.03641

 Mulliken charges and spin densities:
               1          2
     1  C    0.135433  -0.000000
     2  C   -0.363542   0.000000
     3  C   -0.361155   0.000000
     4  C    0.302187   0.000000
     5  C    0.154034   0.000000
     6  C    0.174295   0.000000
     7  C   -0.768679  -0.000000
     8  C    0.450119   0.000000
     9  C    0.262075   0.000000
    10  C   -0.675825  -0.000000
    11  C    0.086042  -0.000000
    12  C   -0.480033  -0.000000
    13  C    0.120415  -0.000000
    14  C    0.172080  -0.000000
    15  O   -0.207491  -0.000000
    16  O   -0.212212  -0.000000
    17  H    0.187038   0.000000
    18  H    0.194461   0.000000
    19  H    0.183502   0.000000
    20  H    0.208081   0.000000
    21  H    0.214347   0.000000
    22  H    0.177566   0.000000
    23  O   -0.030990  -0.000000
    24  C    0.126734   0.000000
    25  C   -0.546041  -0.000000
    26  O   -0.222218  -0.000000
    27  H    0.178108  -0.000000
    28  H    0.181109  -0.000000
    29  H    0.180810  -0.000000
    30  H    0.179753   0.000000
 Sum of Mulliken charges =  -0.00000   0.00000

 Dipole moment (field-independent basis, Debye):
    X=              0.2146    Y=              1.2417    Z=             -1.1730  Tot=              1.7216
 Quadrupole moment (field-independent basis, Debye-Ang):
   XX=            -81.6310   YY=           -117.1447   ZZ=           -119.0778
   XY=              5.5371   XZ=             -8.7124   YZ=             -0.1493

  Exact polarizability: 308.447   5.460 205.235  -4.329  -0.092 103.784
 Approx polarizability: 407.470   8.353 401.278  -9.084  -3.413 170.119

                      1                      2                      3
                      A                      A                      A
 Frequencies --     24.4817                37.3455                54.3358
 Red. masses --      7.5074                 4.9303                 2.4289
 Frc consts  --      0.0027                 0.0041                 0.0042
 IR Inten    --      0.7653                 6.0743                 0.8326

                      4                      5                      6
                      A                      A                      A
 Frequencies --     69.8502                80.9917               114.5523
 Red. masses --      3.2766                 1.7272                 4.6028
 Frc consts  --      0.0094                 0.0067                 0.0356
 IR Inten    --      1.0336                 1.1674                 0.1299

                      7                      8                      9
                      A                      A                      A
 Frequencies --    134.9606               151.9507               198.4903
 Red. masses --      5.3324                 8.6107                 7.0602
 Frc consts  --      0.0572                 0.1171                 0.1639
 IR Inten    --      1.5276                 3.9753                 2.0902

                     10                     11                     12
                      A                      A                      A
 Frequencies --    205.7115               251.0615               289.1829
 Red. masses --      6.3027                 5.2425                 6.4326
 Frc consts  --      0.1571                 0.1947                 0.3169
 IR Inten    --      0.5984                 0.9588                 1.3326

                     13                     14                     15
                      A                      A                      A
 Frequencies --    313.2823               382.3515               395.3242
 Red. masses --      5.6326                 7.9200                 5.2444
 Frc consts  --      0.3257                 0.6822                 0.4829
 IR Inten    --      0.8548                 8.1697                 1.6248

                     16                     17                     18
                      A                      A                      A
 Frequencies --    403.4151               416.4506               445.8720
 Red. masses --      8.4626                 3.5259                 5.8582
 Frc consts  --      0.8114                 0.3603                 0.6862
 IR Inten    --     24.5646                 0.9158                 4.4174

                     19                     20                     21
                      A                      A                      A
 Frequencies --    447.7025               458.3465               479.6938
 Red. masses --      4.0462                 3.9989                10.4309
 Frc consts  --      0.4778                 0.4950                 1.4142
 IR Inten    --      0.9239                 0.4721                 1.4905

                     22                     23                     24
                      A                      A                      A
 Frequencies --    549.0851               570.6265               594.7912
 Red. masses --      4.6609                 5.2131                 2.8860
 Frc consts  --      0.8279                 1.0001                 0.6016
 IR Inten    --      7.8158                 4.5702                 4.2108

                     25                     26                     27
                      A                      A                      A
 Frequencies --    644.9291               659.7003               668.6547
 Red. masses --      6.9185                 5.5068                 4.7680
 Frc consts  --      1.6955                 1.4120                 1.2560
 IR Inten    --     11.9734                 0.5559                 8.4885

                     28                     29                     30
                      A                      A                      A
 Frequencies --    697.2400               700.0948               724.3678
 Red. masses --      5.1944                 6.8403                 4.0040
 Frc consts  --      1.4878                 1.9753                 1.2378
 IR Inten    --      7.2335                 3.1752                15.9327

                     31                     32                     33
                      A                      A                      A
 Frequencies --    734.6617               767.1689               800.2036
 Red. masses --      2.5652                 4.7374                 4.2393
 Frc consts  --      0.8157                 1.6427                 1.5993
 IR Inten    --     52.6941                 7.8562                 1.0399

                     34                     35                     36
                      A                      A                      A
 Frequencies --    810.3361               842.4995               867.0947
 Red. masses --      2.0024                 3.6504                 1.9964
 Frc consts  --      0.7747                 1.5266                 0.8843
 IR Inten    --      8.8501                 5.0150                27.7735

                     37                     38                     39
                      A                      A                      A
 Frequencies --    907.5194               917.6424               941.8016
 Red. masses --      3.5872                 1.4328                 1.7822
 Frc consts  --      1.7407                 0.7109                 0.9314
 IR Inten    --     77.8252                 3.8528                21.8649

                     40                     41                     42
                      A                      A                      A
 Frequencies --    945.0112               998.0713              1001.4356
 Red. masses --      5.8946                 1.4097                 2.6647
 Frc consts  --      3.1015                 0.8274                 1.5745
 IR Inten    --    129.1429                 1.6975                25.9963

                     43                     44                     45
                      A                      A                      A
 Frequencies --   1004.4256              1019.0558              1023.8830
 Red. masses --      1.3871                 1.3255                 2.0229
 Frc consts  --      0.8245                 0.8110                 1.2494
 IR Inten    --      3.0979                 0.0029               109.5567

                     46                     47                     48
                      A                      A                      A
 Frequencies --   1057.4678              1063.7712              1109.0035
 Red. masses --      1.9458                 1.7719                 2.8923
 Frc consts  --      1.2820                 1.1814                 2.0958
 IR Inten    --      1.4058                 7.1348                 8.7134

                     49                     50                     51
                      A                      A                      A
 Frequencies --   1116.0591              1160.8239              1181.5000
 Red. masses --      1.9937                 1.6419                 1.2992
 Frc consts  --      1.4631                 1.3036                 1.0686
 IR Inten    --     14.1957                24.8358                20.1090

                     52                     53                     54
                      A                      A                      A
 Frequencies --   1190.5867              1202.7408              1225.7155
 Red. masses --      1.7717                 4.0840                 3.3850
 Frc consts  --      1.4797                 3.4808                 2.9963
 IR Inten    --     21.7260               993.4961                 2.1935

                     55                     56                     57
                      A                      A                      A
 Frequencies --   1233.3286              1280.3214              1306.2442
 Red. masses --      1.8651                 1.5807                 4.9195
 Frc consts  --      1.6715                 1.5267                 4.9456
 IR Inten    --      2.7496                20.9414               661.9657

                     58                     59                     60
                      A                      A                      A
 Frequencies --   1313.9083              1352.8428              1364.8237
 Red. masses --      2.4483                 7.8741                 8.9251
 Frc consts  --      2.4903                 8.4907                 9.7952
 IR Inten    --     63.0827                44.2322                 1.3893

                     61                     62                     63
                      A                      A                      A
 Frequencies --   1401.0436              1449.6027              1470.9316
 Red. masses --      1.3015                 4.1296                 1.0484
 Frc consts  --      1.5053                 5.1127                 1.3364
 IR Inten    --     52.7885                22.4877                15.3704

                     64                     65                     66
                      A                      A                      A
 Frequencies --   1475.0451              1481.8841              1503.3777
 Red. masses --      1.0457                 2.4370                 2.6667
 Frc consts  --      1.3405                 3.1530                 3.5511
 IR Inten    --     10.8092                 0.6378                 0.6470

                     67                     68                     69
                      A                      A                      A
 Frequencies --   1514.8135              1605.0819              1617.7165
 Red. masses --      2.8282                 7.0029                 7.7619
 Frc consts  --      3.8236                10.6297                11.9681
 IR Inten    --     16.9315                10.9649                 1.1173

                     70                     71                     72
                      A                      A                      A
 Frequencies --   1626.8419              1633.5478              1719.1567
 Red. masses --      6.0964                 6.1545                12.6326
 Frc consts  --      9.5063                 9.6762                21.9976
 IR Inten    --    161.7075                34.7975                 3.8717

                     73                     74                     75
                      A                      A                      A
 Frequencies --   1729.4814              1825.6020              3051.6261
 Red. masses --     12.0936                11.6876                 1.0365
 Frc consts  --     21.3126                22.9502                 5.6872
 IR Inten    --    330.3495               239.0089                 0.7292

                     76                     77                     78
                      A                      A                      A
 Frequencies --   3112.1683              3159.4650              3170.6225
 Red. masses --      1.0997                 1.1033                 1.0870
 Frc consts  --      6.2756                 6.4890                 6.4384
 IR Inten    --      2.8526                 6.5882                 3.2077

                     79                     80                     81
                      A                      A                      A
 Frequencies --   3184.8984              3199.1946              3200.2059
 Red. masses --      1.0918                 1.0895                 1.0925
 Frc consts  --      6.5249                 6.5701                 6.5922
 IR Inten    --     10.1521                 0.4207                 0.2529

                     82                     83                     84
                      A                      A                      A
 Frequencies --   3202.7724              3209.0413              3219.2564
 Red. masses --      1.0950                 1.0915                 1.0944
 Frc consts  --      6.6177                 6.6226                 6.6824
 IR Inten    --     12.4358                 4.5431                 2.6206

 - Thermochemistry -
 -------------------
 Temperature   298.150 Kelvin.  Pressure   1.00000 Atm.
 Atom     1 has atomic number  6 and mass  12.00000

 Molecular mass:   266.05791 amu.
 Principal axes and moments of inertia in atomic units:
                           1         2         3
     Eigenvalues --  1924.18107********************
           X            0.99812  -0.05969  -0.01373
           Y            0.05948   0.99811  -0.01558
           Z            0.01463   0.01473   0.99978
 This molecule is an asymmetric top.
 Rotational symmetry number  1.
 Warning -- assumption of classical behavior for rotation
           may cause significant error
 Rotational temperatures (Kelvin)      0.04501     0.00843     0.00725
 Rotational constants (GHZ):           0.93793     0.17560     0.15099
 Zero-point vibrational energy     578204.0 (Joules/Mol)
                                  138.19408 (Kcal/Mol)
 Warning -- explicit consideration of  24 degrees of freedom as
           vibrations may cause significant error
 Vibrational temperatures:     35.22    53.73    78.18   100.50   116.53
          (Kelvin)            164.82   194.18   218.62   285.58   295.97
                              361.22   416.07   450.74   550.12   568.78
                              580.42   599.18   641.51   644.14   659.46
                              690.17   790.01   821.00   855.77   927.91
                              949.16   962.05  1003.17  1007.28  1042.20
                             1057.01  1103.78  1151.31  1165.89  1212.17
                             1247.56  1305.72  1320.28  1355.04  1359.66
                             1436.00  1440.84  1445.14  1466.19  1473.14
                             1521.46  1530.53  1595.61  1605.76  1670.17
                             1699.91  1712.99  1730.48  1763.53  1774.48
                             1842.10  1879.39  1890.42  1946.44  1963.68
                             2015.79  2085.66  2116.34  2122.26  2132.10
                             2163.03  2179.48  2309.35  2327.53  2340.66
                             2350.31  2473.48  2488.34  2626.63  4390.61
                             4477.72  4545.77  4561.82  4582.36  4602.93
                             4604.38  4608.08  4617.09  4631.79

 Zero-point correction=                           0.220226 (Hartree/Particle)
 Thermal correction to Energy=                    0.236335
 Thermal correction to Enthalpy=                  0.237279
 Thermal correction to Gibbs Free Energy=         0.174723
 Sum of electronic and zero-point Energies=           -916.678027
 Sum of electronic and thermal Energies=              -916.661918
 Sum of electronic and thermal Enthalpies=            -916.660974
 Sum of electronic and thermal Free Energies=         -916.723531

                     E (Thermal)             CV                S
                      KCal/Mol        Cal/Mol-Kelvin    Cal/Mol-Kelvin
 Total                  148.302             61.628            131.661
 Electronic               0.000              0.000              0.000
 Translational            0.889              2.981             42.635
 Rotational               0.889              2.981             33.824
 Vibrational            146.525             55.666             55.202
 Vibration     1          0.593              1.985              6.233
 Vibration     2          0.594              1.982              5.395
 Vibration     3          0.596              1.976              4.653
 Vibration     4          0.598              1.968              4.158
 Vibration     5          0.600              1.962              3.867
 Vibration     6          0.607              1.937              3.190
 Vibration     7          0.613              1.918              2.874
 Vibration     8          0.619              1.901              2.648
 Vibration     9          0.637              1.842              2.147
 Vibration    10          0.640              1.832              2.081
 Vibration    11          0.663              1.761              1.723
 Vibration    12          0.686              1.694              1.479
 Vibration    13          0.701              1.648              1.345
 Vibration    14          0.752              1.508              1.030
 Vibration    15          0.762              1.480              0.980
 Vibration    16          0.769              1.463              0.950
 Vibration    17          0.780              1.435              0.904
 Vibration    18          0.805              1.370              0.808
 Vibration    19          0.807              1.366              0.803
 Vibration    20          0.816              1.342              0.771
 Vibration    21          0.836              1.295              0.711
 Vibration    22          0.904              1.142              0.546
 Vibration    23          0.927              1.095              0.503
 Vibration    24          0.952              1.043              0.459

                           ! Non-Optimized Parameters !
 Normal termination of Gaussian 16 at Thu Dec 21 07:18:43 2023.
