 Q-Chem 5.4, Q-Chem, Inc., Pleasanton, CA (2021)
 Q-Chem 5.4.0 for Intel X86 EM64T Linux

User input:
--------------------------------------------------------------
$molecule
-1 2
C                  5.8016610000     -5.1072710000      1.2556340000
C                  6.7931190000     -5.0418670000      0.3024560000
C                  6.6747450000     -4.1179530000     -0.7714830000
C                  4.6640740000     -4.2738940000      1.1912390000
C                  4.5461690000     -3.3502190000      0.1173200000
C                  5.5583270000     -3.2879110000     -0.8501150000
C                  3.6302140000     -4.3716770000      2.2227500000
C                  2.4904610000     -3.4795690000      2.0855530000
C                  2.3720880000     -2.5775760000      1.0399090000
C                  3.3816370000     -2.4581700000      0.0019130000
O                  3.7367690000     -5.1922100000      3.1750810000
O                  3.2817170000     -1.6426640000     -0.9499360000
C                  7.7004910000     -4.0476260000     -1.7611320000
N                  8.5439410000     -4.0050470000     -2.5554570000
H                  5.8651800000     -5.8016580000      2.0850880000
H                  7.6638260000     -5.6851900000      0.3587010000
H                  5.4452910000     -2.5758500000     -1.6586240000
C                  1.4226920000     -3.5768510000      3.1464740000
C                  1.1742350000     -1.6671750000      0.9306420000
H                  1.7006490000     -4.3411100000      3.8719300000
H                  0.4484970000     -3.8370410000      2.7148470000
H                  1.2891190000     -2.6233460000      3.6719760000
H                  0.2397400000     -2.2363790000      0.8532000000
H                  1.2752480000     -1.0396320000      0.0453210000
H                  1.0766140000     -1.0202380000      1.8110750000
$end
$rem
MAX_SCF_CYCLES=200
BASIS  =  6-311++G(d,p)
GUI  =  2
JOB_TYPE  =  SP
METHOD  =  B3LYP
SOLVENT_METHOD = COSMO
$end
$solvent
dielectric 37.219
opticaldielectric 1.43
$end

--------------------------------------------------------------

             Standard Nuclear Orientation (Angstroms)
    I     Atom           X                Y                Z
 ----------------------------------------------------------------
    1      C      -1.1521855516    -1.8641192907    -0.0001047459
    2      C      -2.4634816300    -1.4442174649    -0.0001158487
    3      C      -2.7551650687    -0.0528529461    -0.0000357521
    4      C      -0.0846654228    -0.9404478735    -0.0000030341
    5      C      -0.3767740937     0.4506134614     0.0000082217
    6      C      -1.7133239276     0.8724085830     0.0000202255
    7      C       1.2968697021    -1.4239803430     0.0000832490
    8      C       2.3390166832    -0.4102514488     0.0000993505
    9      C       2.0580586812     0.9469653734    -0.0000131387
   10      C       0.6973752192     1.4563013980     0.0000376149
   11      O       1.5539770357    -2.6590748834     0.0001144714
   12      O       0.4340672584     2.6858214174     0.0000630999
   13      C      -4.1131493721     0.3857636469     0.0000151473
   14      N      -5.2224539836     0.7228339020     0.0000538361
   15      H      -0.9001220592    -2.9180006408    -0.0001577816
   16      H      -3.2779340306    -2.1596375816    -0.0001940065
   17      H      -1.9099531601     1.9376934049     0.0000569092
   18      C       3.7642369636    -0.9041086547     0.0000231775
   19      C       3.1665471686     1.9701341393    -0.0001457696
   20      H       3.7705639519    -1.9938753366     0.0026440560
   21      H       4.3148838873    -0.5454596554     0.8782119169
   22      H       4.3130255581    -0.5501006124    -0.8812686402
   23      H       3.8120852769     1.8667209622     0.8806820385
   24      H       2.7359334450     2.9713214110    -0.0018732074
   25      H       3.8141845549     1.8642769811    -0.8791108923
 ----------------------------------------------------------------

    9    -706.2680776554      8.84e-06  Convergence criterion met
 Total energy in the final basis set =     -706.2680776554
    5    -706.3452114725      4.18e-06  Convergence criterion met
 Total energy in the final basis set =     -706.3452114725

                    Orbital Energies (a.u.)
 --------------------------------------------------------------

 Alpha MOs
 -- Occupied --
-19.0842 -19.0821 -14.3228 -10.2298 -10.2261 -10.2259 -10.2162 -10.1926
-10.1903 -10.1838 -10.1829 -10.1798 -10.1756 -10.1741 -10.1534 -10.1534
 -1.0109  -1.0066  -0.9248  -0.8747  -0.8261  -0.7822  -0.7665  -0.7268
 -0.6911  -0.6703  -0.6251  -0.6059  -0.5681  -0.5426  -0.5137  -0.4835
 -0.4722  -0.4408  -0.4381  -0.4342  -0.4272  -0.4114  -0.4077  -0.3993
 -0.3901  -0.3888  -0.3874  -0.3837  -0.3739  -0.3702  -0.3535  -0.3489
 -0.3439  -0.3417  -0.2769  -0.2697  -0.2553  -0.2482  -0.2429  -0.1589

 Beta MOs
 -- Occupied --
-19.0784 -19.0758 -14.3224 -10.2283 -10.2260 -10.2244 -10.2156 -10.1929
-10.1896 -10.1827 -10.1822 -10.1799 -10.1748 -10.1729 -10.1535 -10.1535
 -1.0008  -0.9954  -0.9242  -0.8727  -0.8218  -0.7802  -0.7647  -0.7236
 -0.6887  -0.6652  -0.6232  -0.6029  -0.5662  -0.5396  -0.5117  -0.4812
 -0.4705  -0.4378  -0.4326  -0.4308  -0.4229  -0.4084  -0.4045  -0.3919
 -0.3887  -0.3866  -0.3831  -0.3800  -0.3698  -0.3543  -0.3524  -0.3471
 -0.3404  -0.3343  -0.2636  -0.2558  -0.2497  -0.2376  -0.2374

          Ground-State Mulliken Net Atomic Charges

     Atom                 Charge (a.u.)    Spin (a.u.)
  --------------------------------------------------------
      1 C                    -0.003939       0.016698
      2 C                    -0.684919       0.060384
      3 C                     1.420609       0.035061
      4 C                     0.119337       0.041567
      5 C                    -0.118144       0.031550
      6 C                     0.217928      -0.009202
      7 C                    -0.524247       0.116525
      8 C                     0.371454       0.054703
      9 C                     0.746379       0.105000
     10 C                    -0.609942       0.088341
     11 O                    -0.500762       0.230666
     12 O                    -0.485998       0.209292
     13 C                    -1.420555      -0.014544
     14 N                    -0.307853       0.019282
     15 H                     0.181436      -0.001637
     16 H                     0.229987      -0.003872
     17 H                     0.203710      -0.000056
     18 C                    -0.449119       0.006606
     19 C                    -0.417386       0.001917
     20 H                     0.188212      -0.001448
     21 H                     0.164681       0.002901
     22 H                     0.165050       0.002926
     23 H                     0.165101       0.004297
     24 H                     0.184089      -0.001233
     25 H                     0.164893       0.004274
  --------------------------------------------------------
  Sum of atomic charges =    -1.000000

                    Cartesian Multipole Moments
 -----------------------------------------------------------------
    Charge (ESU x 10^10)
                -4.8032
    Dipole Moment (Debye)
         X       3.7720      Y      -1.3819      Z      -0.0008
       Tot       4.0172
    Quadrupole Moments (Debye-Ang)
        XX    -138.5588     XY      17.9642     YY    -129.1183
        XZ      -0.0014     YZ       0.0016     ZZ     -96.9002

 Total job time:  97.77s(wall), 509.17s(cpu)
        *  Thank you very much for using Q-Chem.  Have a nice day.  *
