 Gaussian 16, Revision A.03,
 Gaussian 16:  ES64L-G16RevA.03 25-Dec-2016

 --------------------------------------
 #P UB3LYP/6-311++G(d,p) nosym opt freq
 --------------------------------------

 --------
 Oxidized
 --------
 Symbolic Z-matrix:
 Charge =  0 Multiplicity = 1

 SCF Done:  E(UB3LYP) =  -2019.67024598     A.U. after   18 cycles
 SCF Done:  E(UB3LYP) =  -2019.68119937     A.U. after   18 cycles
 SCF Done:  E(UB3LYP) =  -2019.68309186     A.U. after   17 cycles
 SCF Done:  E(UB3LYP) =  -2019.68565535     A.U. after   17 cycles
 SCF Done:  E(UB3LYP) =  -2019.68572023     A.U. after   15 cycles
 SCF Done:  E(UB3LYP) =  -2019.68602619     A.U. after   14 cycles
 SCF Done:  E(UB3LYP) =  -2019.68605468     A.U. after   15 cycles
 SCF Done:  E(UB3LYP) =  -2019.68615002     A.U. after   14 cycles
 SCF Done:  E(UB3LYP) =  -2019.68626687     A.U. after   17 cycles
 SCF Done:  E(UB3LYP) =  -2019.68630864     A.U. after   16 cycles
 SCF Done:  E(UB3LYP) =  -2019.68642180     A.U. after   13 cycles
 SCF Done:  E(UB3LYP) =  -2019.68643369     A.U. after   14 cycles
 SCF Done:  E(UB3LYP) =  -2019.68643911     A.U. after   14 cycles
 SCF Done:  E(UB3LYP) =  -2019.68644165     A.U. after   13 cycles
 SCF Done:  E(UB3LYP) =  -2019.68644366     A.U. after   14 cycles
 SCF Done:  E(UB3LYP) =  -2019.68644447     A.U. after   13 cycles
 SCF Done:  E(UB3LYP) =  -2019.68644521     A.U. after   13 cycles
 SCF Done:  E(UB3LYP) =  -2019.68644553     A.U. after   13 cycles
 SCF Done:  E(UB3LYP) =  -2019.68644553     A.U. after   11 cycles
 Optimization completed.
    -- Stationary point found.
 Normal termination of Gaussian 16 at Wed Dec 20 06:19:26 2023.

 ----------------------------------------------------------------------
 #P Geom=AllCheck Guess=TCheck SCRF=Check GenChk UB3LYP/6-311++G(d,p) F
 req
 ----------------------------------------------------------------------

 Structure from the checkpoint file:  "074.chk"
 --------
 Oxidized
 --------
 Charge =  0 Multiplicity = 1

                          Input orientation:
 ---------------------------------------------------------------------
 Center     Atomic      Atomic             Coordinates (Angstroms)
 Number     Number       Type             X           Y           Z
 ---------------------------------------------------------------------
      1          6           0        0.597338    1.253389   -0.850217
      2          6           0       -0.781203    0.807767   -0.512050
      3          6           0       -1.081182   -0.488174   -0.285423
      4          6           0        0.066103   -1.474172   -0.236425
      5          6           0        1.498698   -1.019605   -0.414189
      6          6           0        1.713854    0.294021   -0.635070
      7          8           0        0.802294    2.359021   -1.313465
      8          8           0       -0.164714   -2.646682   -0.023956
      9         16           0        3.417159    0.946670   -0.910230
     10          6           0        3.508921    2.548379   -0.091313
     11          6           0        3.464902    3.708023   -0.859432
     12          6           0        3.724171    2.581591    1.285103
     13          6           0        3.879055    3.817227    1.908925
     14          6           0        3.638223    4.934815   -0.224965
     15          6           0        3.838962    4.989283    1.154348
     16          8           0        3.580069    1.136165   -2.351743
     17          8           0        4.317565    0.055918   -0.169181
     18          1           0        3.301990    3.639161   -1.926524
     19          1           0        3.795535    1.660439    1.849745
     20          1           0        3.617785    5.847509   -0.808864
     21          1           0        4.049302    3.861847    2.978240
     22          1           0        3.972435    5.948234    1.642234
     23         16           0       -2.107198    2.083757   -0.640545
     24          6           0       -1.484811    3.576422    0.152662
     25          6           0       -1.057591    4.638923   -0.638108
     26          6           0       -1.543181    3.666280    1.542098
     27          6           0       -1.141409    4.851288    2.153883
     28          6           0       -0.675255    5.822887   -0.013881
     29          6           0       -0.711899    5.926557    1.376687
     30          8           0       -2.314638    2.349257   -2.064216
     31          8           0       -3.213104    1.605969    0.197292
     32          1           0       -1.032854    4.531248   -1.714097
     33          1           0       -1.919797    2.837392    2.128216
     34          1           0       -1.182208    4.939604    3.233211
     35          1           0       -0.350250    6.664381   -0.614405
     36          1           0       -0.412030    6.851431    1.856394
     37          6           0       -2.442216   -1.085485   -0.074848
     38          6           0        2.527278   -2.109225   -0.323676
     39          1           0       -2.836524   -0.795879    0.902189
     40          1           0       -2.373863   -2.169689   -0.123188
     41          1           0       -3.156153   -0.720149   -0.811837
     42          1           0        2.033169   -3.077527   -0.352271
     43          1           0        3.089275   -2.023544    0.609571
     44          1           0        3.258338   -2.035472   -1.127560
 ---------------------------------------------------------------------

 SCF Done:  E(UB3LYP) =  -2019.68644553     A.U. after    2 cycles

 Alpha  occ. eigenvalues --  -89.07023 -89.07022 -19.16902 -19.15973 -19.13217
 Alpha  occ. eigenvalues --  -19.13216 -19.13019 -19.13018 -10.31720 -10.31412
 Alpha  occ. eigenvalues --  -10.25795 -10.25792 -10.25426 -10.25425 -10.22983
 Alpha  occ. eigenvalues --  -10.22982 -10.21315 -10.21314 -10.20898 -10.20897
 Alpha  occ. eigenvalues --  -10.20792 -10.20791 -10.20586 -10.20586 -10.20427
 Alpha  occ. eigenvalues --  -10.20427 -10.18830 -10.18827  -8.13367  -8.13367
 Alpha  occ. eigenvalues --   -6.09603  -6.09602  -6.09574  -6.09573  -6.09489
 Alpha  occ. eigenvalues --   -6.09489  -1.12850  -1.12740  -1.10337  -1.09680
 Alpha  occ. eigenvalues --   -1.02308  -1.02297  -0.89934  -0.89473  -0.89457
 Alpha  occ. eigenvalues --   -0.85349  -0.80008  -0.80002  -0.78215  -0.78190
 Alpha  occ. eigenvalues --   -0.77031  -0.75418  -0.72098  -0.68777  -0.68530
 Alpha  occ. eigenvalues --   -0.64140  -0.64127  -0.63988  -0.63771  -0.60356
 Alpha  occ. eigenvalues --   -0.59819  -0.57128  -0.56358  -0.55560  -0.53010
 Alpha  occ. eigenvalues --   -0.51459  -0.50206  -0.49859  -0.49643  -0.49286
 Alpha  occ. eigenvalues --   -0.48948  -0.48612  -0.48204  -0.47372  -0.47328
 Alpha  occ. eigenvalues --   -0.46329  -0.46255  -0.45715  -0.45664  -0.45353
 Alpha  occ. eigenvalues --   -0.44779  -0.44366  -0.43890  -0.42083  -0.41362
 Alpha  occ. eigenvalues --   -0.40711  -0.40255  -0.40074  -0.39742  -0.39674
 Alpha  occ. eigenvalues --   -0.38050  -0.38035  -0.35910  -0.35444  -0.34750
 Alpha  occ. eigenvalues --   -0.34701  -0.33132  -0.32887  -0.32516  -0.32132
 Alpha  occ. eigenvalues --   -0.31838  -0.31831  -0.30977  -0.29267  -0.28939
 Alpha  occ. eigenvalues --   -0.28807  -0.28595  -0.28018
 Alpha virt. eigenvalues --   -0.15845  -0.07533  -0.06709  -0.05337  -0.04462
 Alpha virt. eigenvalues --   -0.03743  -0.03312  -0.02430  -0.01319  -0.00628
 Alpha virt. eigenvalues --   -0.00239   0.00498   0.00800   0.01402   0.01714

  Beta  occ. eigenvalues --  -89.07023 -89.07022 -19.16902 -19.15973 -19.13217
  Beta  occ. eigenvalues --  -19.13216 -19.13019 -19.13018 -10.31720 -10.31412
  Beta  occ. eigenvalues --  -10.25795 -10.25792 -10.25426 -10.25425 -10.22983
  Beta  occ. eigenvalues --  -10.22982 -10.21315 -10.21314 -10.20898 -10.20897
  Beta  occ. eigenvalues --  -10.20792 -10.20791 -10.20586 -10.20586 -10.20427
  Beta  occ. eigenvalues --  -10.20427 -10.18830 -10.18827  -8.13367  -8.13367
  Beta  occ. eigenvalues --   -6.09603  -6.09602  -6.09574  -6.09573  -6.09489
  Beta  occ. eigenvalues --   -6.09489  -1.12850  -1.12740  -1.10337  -1.09680
  Beta  occ. eigenvalues --   -1.02308  -1.02297  -0.89934  -0.89473  -0.89457
  Beta  occ. eigenvalues --   -0.85349  -0.80008  -0.80002  -0.78215  -0.78190
  Beta  occ. eigenvalues --   -0.77031  -0.75418  -0.72098  -0.68777  -0.68530
  Beta  occ. eigenvalues --   -0.64140  -0.64127  -0.63988  -0.63771  -0.60356
  Beta  occ. eigenvalues --   -0.59819  -0.57128  -0.56358  -0.55560  -0.53010
  Beta  occ. eigenvalues --   -0.51459  -0.50206  -0.49859  -0.49643  -0.49286
  Beta  occ. eigenvalues --   -0.48948  -0.48612  -0.48204  -0.47372  -0.47328
  Beta  occ. eigenvalues --   -0.46329  -0.46255  -0.45715  -0.45664  -0.45353
  Beta  occ. eigenvalues --   -0.44779  -0.44366  -0.43890  -0.42083  -0.41362
  Beta  occ. eigenvalues --   -0.40711  -0.40255  -0.40074  -0.39742  -0.39674
  Beta  occ. eigenvalues --   -0.38050  -0.38035  -0.35910  -0.35444  -0.34750
  Beta  occ. eigenvalues --   -0.34701  -0.33132  -0.32887  -0.32516  -0.32132
  Beta  occ. eigenvalues --   -0.31838  -0.31831  -0.30977  -0.29267  -0.28939
  Beta  occ. eigenvalues --   -0.28807  -0.28595  -0.28018
  Beta virt. eigenvalues --   -0.15845  -0.07533  -0.06709  -0.05337  -0.04462
  Beta virt. eigenvalues --   -0.03743  -0.03312  -0.02430  -0.01319  -0.00628
  Beta virt. eigenvalues --   -0.00239   0.00498   0.00800   0.01402   0.01714

 Mulliken charges and spin densities:
               1          2
     1  C   -0.217123   0.000000
     2  C   -0.419665  -0.000000
     3  C    0.760149   0.000000
     4  C   -1.727836  -0.000000
     5  C    0.761018   0.000000
     6  C   -0.416164  -0.000000
     7  O   -0.071638  -0.000000
     8  O   -0.142632   0.000000
     9  S    0.829382   0.000000
    10  C   -0.048424  -0.000000
    11  C   -0.277701   0.000000
    12  C    0.153987  -0.000000
    13  C   -0.471851   0.000000
    14  C   -0.278417  -0.000000
    15  C   -0.308994   0.000000
    16  O    0.003236   0.000000
    17  O   -0.036671   0.000000
    18  H    0.265540   0.000000
    19  H    0.244850  -0.000000
    20  H    0.199924  -0.000000
    21  H    0.196218   0.000000
    22  H    0.172939   0.000000
    23  S    0.828143   0.000000
    24  C   -0.047358  -0.000000
    25  C   -0.278647   0.000000
    26  C    0.155377  -0.000000
    27  C   -0.471650   0.000000
    28  C   -0.276558  -0.000000
    29  C   -0.310597  -0.000000
    30  O    0.002946   0.000000
    31  O   -0.036435   0.000000
    32  H    0.265623   0.000000
    33  H    0.244912  -0.000000
    34  H    0.196256   0.000000
    35  H    0.199894   0.000000
    36  H    0.172975  -0.000000
    37  C   -0.556653  -0.000000
    38  C   -0.554729  -0.000000
    39  H    0.222777   0.000000
    40  H    0.189789   0.000000
    41  H    0.235454   0.000000
    42  H    0.189495  -0.000000
    43  H    0.223226   0.000000
    44  H    0.235633   0.000000
 Sum of Mulliken charges =  -0.00000  -0.00000

 Dipole moment (field-independent basis, Debye):
    X=              0.9788    Y=              3.5310    Z=              5.2625  Tot=              6.4125
 Quadrupole moment (field-independent basis, Debye-Ang):
   XX=           -203.7102   YY=           -143.7860   ZZ=           -177.5946
   XY=             15.1565   XZ=              6.4554   YZ=             14.7012

  Exact polarizability: 251.139  26.519 372.087   1.546  11.102 232.799
 Approx polarizability: 354.121  55.579 622.652  -3.310 -40.280 449.138

                      1                      2                      3
                      A                      A                      A
 Frequencies --      8.2664                13.6943                30.9223
 Red. masses --      5.7815                 7.4736                 6.4324
 Frc consts  --      0.0002                 0.0008                 0.0036
 IR Inten    --      0.0729                 1.1834                 0.8295

                      4                      5                      6
                      A                      A                      A
 Frequencies --     32.0023                43.8240                46.3215
 Red. masses --      4.0231                 4.4716                 3.6166
 Frc consts  --      0.0024                 0.0051                 0.0046
 IR Inten    --      0.3642                 2.2986                 0.3529

                      7                      8                      9
                      A                      A                      A
 Frequencies --     54.0383                58.6036                82.6282
 Red. masses --      4.2459                 4.9318                 5.8913
 Frc consts  --      0.0073                 0.0100                 0.0237
 IR Inten    --      4.1690                 0.9954                 0.3210

                     10                     11                     12
                      A                      A                      A
 Frequencies --    113.2248               116.8777               120.7505
 Red. masses --      1.1049                 1.1634                 6.9077
 Frc consts  --      0.0083                 0.0094                 0.0593
 IR Inten    --      0.1128                 1.6623                 1.3412

                     13                     14                     15
                      A                      A                      A
 Frequencies --    162.1331               173.1376               183.3246
 Red. masses --      6.4033                 7.2753                 6.7223
 Frc consts  --      0.0992                 0.1285                 0.1331
 IR Inten    --      0.1531                 6.1908                 2.2635

                     16                     17                     18
                      A                      A                      A
 Frequencies --    190.0776               197.8853               216.7154
 Red. masses --      7.7616                 5.6778                 7.3430
 Frc consts  --      0.1652                 0.1310                 0.2032
 IR Inten    --      0.8417                 0.0003                 1.4244

                     19                     20                     21
                      A                      A                      A
 Frequencies --    223.3141               237.4281               265.2867
 Red. masses --      6.6201                 9.6772                10.5281
 Frc consts  --      0.1945                 0.3214                 0.4365
 IR Inten    --      0.0005                 1.8174                 0.3131

                     22                     23                     24
                      A                      A                      A
 Frequencies --    273.0604               306.5684               309.9057
 Red. masses --      8.1093                 7.3067                 8.6089
 Frc consts  --      0.3562                 0.4046                 0.4871
 IR Inten    --      0.3134                 3.6403                 0.0083

                     25                     26                     27
                      A                      A                      A
 Frequencies --    342.9082               350.7382               380.3906
 Red. masses --      6.4335                 3.3432                 5.0249
 Frc consts  --      0.4457                 0.2423                 0.4284
 IR Inten    --      0.9774                 0.1007                10.8788

                     28                     29                     30
                      A                      A                      A
 Frequencies --    387.4951               409.6258               411.1171
 Red. masses --      5.5401                 2.8777                 2.9018
 Frc consts  --      0.4901                 0.2845                 0.2890
 IR Inten    --      6.7691                 0.0449                 0.3075

                     31                     32                     33
                      A                      A                      A
 Frequencies --    424.9157               436.8910               441.1670
 Red. masses --      5.1759                 6.3137                 8.9677
 Frc consts  --      0.5506                 0.7100                 1.0283
 IR Inten    --      3.7118                 4.4046                 4.9999

                     34                     35                     36
                      A                      A                      A
 Frequencies --    457.6332               458.4281               483.9367
 Red. masses --      5.6303                 5.3567                 7.2275
 Frc consts  --      0.6947                 0.6633                 0.9973
 IR Inten    --     23.8758                 3.0111                 2.1916

                     37                     38                     39
                      A                      A                      A
 Frequencies --    509.0590               538.1119               550.0358
 Red. masses --      7.8802                10.2892                 7.4233
 Frc consts  --      1.2032                 1.7554                 1.3232
 IR Inten    --     26.9505                51.8424               117.5734

                     40                     41                     42
                      A                      A                      A
 Frequencies --    570.8092               599.4761               601.4501
 Red. masses --      6.0034                 6.6587                 8.9283
 Frc consts  --      1.1525                 1.4099                 1.9029
 IR Inten    --      0.9307                 0.7936               219.2789

                     43                     44                     45
                      A                      A                      A
 Frequencies --    626.5162               626.8190               667.8853
 Red. masses --      6.4470                 6.4403                 8.6816
 Frc consts  --      1.4910                 1.4909                 2.2817
 IR Inten    --      0.0016                 0.0288                33.0462

                     46                     47                     48
                      A                      A                      A
 Frequencies --    701.1033               701.5959               706.5775
 Red. masses --      1.9032                 2.0186                 5.5672
 Frc consts  --      0.5512                 0.5854                 1.6376
 IR Inten    --     90.9043                13.9620                 5.9106

                     49                     50                     51
                      A                      A                      A
 Frequencies --    712.4113               730.7433               731.5249
 Red. masses --      6.7641                 6.4076                 5.8776
 Frc consts  --      2.0227                 2.0159                 1.8531
 IR Inten    --     22.1311                73.0705                16.9623

                     52                     53                     54
                      A                      A                      A
 Frequencies --    763.8538               764.7931               810.7111
 Red. masses --      1.7603                 1.6470                 7.3036
 Frc consts  --      0.6051                 0.5676                 2.8283
 IR Inten    --     40.9411                 0.7086                16.0138

                     55                     56                     57
                      A                      A                      A
 Frequencies --    840.0105               849.9280               853.3147
 Red. masses --      4.0391                 1.2463                 1.2446
 Frc consts  --      1.6792                 0.5304                 0.5340
 IR Inten    --     45.6729                 0.2065                 0.9580

                     58                     59                     60
                      A                      A                      A
 Frequencies --    940.4963               942.0565               961.4620
 Red. masses --      1.3533                 1.3506                 6.2631
 Frc consts  --      0.7053                 0.7062                 3.4112
 IR Inten    --      0.1631                 0.7490                34.5991

                     61                     62                     63
                      A                      A                      A
 Frequencies --    984.6724               989.4320               991.1728
 Red. masses --      4.0917                 1.3861                 1.3841
 Frc consts  --      2.3374                 0.7995                 0.8012
 IR Inten    --      2.6378                 0.4857                 0.0296

                     64                     65                     66
                      A                      A                      A
 Frequencies --   1007.9565              1010.2719              1014.5293
 Red. masses --      1.3198                 1.3185                 6.0674
 Frc consts  --      0.7900                 0.7929                 3.6794
 IR Inten    --      0.0577                 0.0082                 4.2954

                     67                     68                     69
                      A                      A                      A
 Frequencies --   1014.9172              1031.3183              1039.5966
 Red. masses --      6.0029                 1.5064                 3.6334
 Frc consts  --      3.6431                 0.9440                 2.3137
 IR Inten    --      5.0463                 0.4500                20.8774

                     70                     71                     72
                      A                      A                      A
 Frequencies --   1040.1189              1047.6906              1065.9394
 Red. masses --      3.4696                 1.6676                 3.0153
 Frc consts  --      2.2116                 1.0784                 2.0186
 IR Inten    --      5.5101                 5.2039               139.0242

                     73                     74                     75
                      A                      A                      A
 Frequencies --   1067.9793              1068.6948              1087.7367
 Red. masses --      1.6887                 3.3825                 2.6447
 Frc consts  --      1.1348                 2.2761                 1.8436
 IR Inten    --      1.3247                17.5739                 0.1345

                     76                     77                     78
                      A                      A                      A
 Frequencies --   1101.0130              1101.5442              1113.1527
 Red. masses --      1.5651                 1.5678                 5.0995
 Frc consts  --      1.1179                 1.1208                 3.7229
 IR Inten    --      2.7951                 9.8641               129.6037

                     79                     80                     81
                      A                      A                      A
 Frequencies --   1113.8437              1184.4422              1185.2173
 Red. masses --      5.2735                 1.1197                 1.1214
 Frc consts  --      3.8547                 0.9255                 0.9281
 IR Inten    --    112.4353                 0.0136                 0.3643

                     82                     83                     84
                      A                      A                      A
 Frequencies --   1199.1267              1200.2104              1204.3470
 Red. masses --      1.1565                 1.1862                 3.9560
 Frc consts  --      0.9798                 1.0067                 3.3807
 IR Inten    --      3.4340                20.1163               105.4148

                     85                     86                     87
                      A                      A                      A
 Frequencies --   1236.1659              1272.2361              1279.6228
 Red. masses --     10.9526                11.7916                16.6978
 Frc consts  --      9.8610                11.2450                16.1092
 IR Inten    --    224.3766                 0.9718               267.0131

                     88                     89                     90
                      A                      A                      A
 Frequencies --   1290.0804              1332.9683              1333.4443
 Red. masses --      7.6882                 2.4619                 2.3848
 Frc consts  --      7.5389                 2.5772                 2.4983
 IR Inten    --     34.1922                 0.0101                 0.0738

                     91                     92                     93
                      A                      A                      A
 Frequencies --   1346.1388              1346.5102              1407.6162
 Red. masses --      2.0349                 2.0846                 1.1658
 Frc consts  --      2.1726                 2.2268                 1.3610
 IR Inten    --      0.0472                 4.6118                30.4210

                     94                     95                     96
                      A                      A                      A
 Frequencies --   1408.0481              1470.0228              1471.3807
 Red. masses --      1.1684                 1.0832                 1.1019
 Frc consts  --      1.3648                 1.3791                 1.4056
 IR Inten    --      6.0717                60.6108                 0.0747

                     97                     98                     99
                      A                      A                      A
 Frequencies --   1476.8561              1477.1952              1485.8396
 Red. masses --      2.1356                 2.1447                 1.0577
 Frc consts  --      2.7444                 2.7574                 1.3758
 IR Inten    --      0.5291                28.1910                 1.4523

                    100                    101                    102
                      A                      A                      A
 Frequencies --   1486.4097              1506.7659              1507.0070
 Red. masses --      1.0542                 2.0266                 2.0275
 Frc consts  --      1.3723                 2.7109                 2.7129
 IR Inten    --     22.6128                 0.0642                 6.6044

                    103                    104                    105
                      A                      A                      A
 Frequencies --   1621.2643              1622.0437              1622.1207
 Red. masses --      7.6409                 6.2100                 5.3413
 Frc consts  --     11.8332                 9.6265                 8.2806
 IR Inten    --     27.1721                17.2689                 2.9295

                    106                    107                    108
                      A                      A                      A
 Frequencies --   1626.4432              1626.6208              1656.2522
 Red. masses --      5.8309                 5.8221                 9.7792
 Frc consts  --      9.0878                 9.0762                15.8054
 IR Inten    --      0.0681                 0.3467                36.6959

                    109                    110                    111
                      A                      A                      A
 Frequencies --   1716.4087              1728.8658              3057.4183
 Red. masses --     13.2039                12.5890                 1.0407
 Frc consts  --     22.9190                22.1700                 5.7319
 IR Inten    --     79.4131               328.5110                 0.0097

                    112                    113                    114
                      A                      A                      A
 Frequencies --   3057.9222              3116.9883              3117.2429
 Red. masses --      1.0404                 1.0932                 1.0929
 Frc consts  --      5.7318                 6.2578                 6.2568
 IR Inten    --      0.0139                 2.0643                 3.1669

                    115                    116                    117
                      A                      A                      A
 Frequencies --   3158.1926              3158.6828              3168.8840
 Red. masses --      1.1034                 1.1034                 1.0863
 Frc consts  --      6.4842                 6.4860                 6.4272
 IR Inten    --      5.3959                 7.6480                 0.0749

                    118                    119                    120
                      A                      A                      A
 Frequencies --   3169.1086              3181.1052              3181.4586
 Red. masses --      1.0863                 1.0898                 1.0898
 Frc consts  --      6.4282                 6.4977                 6.4990
 IR Inten    --      0.8572                 0.7340                15.9592

                    121                    122                    123
                      A                      A                      A
 Frequencies --   3189.9663              3190.3049              3201.1984
 Red. masses --      1.0945                 1.0944                 1.0948
 Frc consts  --      6.5618                 6.5628                 6.6104
 IR Inten    --      0.0043                18.3925                 0.6291

                    124                    125                    126
                      A                      A                      A
 Frequencies --   3201.3279              3216.1486              3216.3750
 Red. masses --      1.0948                 1.0936                 1.0936
 Frc consts  --      6.6109                 6.6649                 6.6658
 IR Inten    --      6.9957                 0.0217                 6.5587

 - Thermochemistry -
 -------------------
 Temperature   298.150 Kelvin.  Pressure   1.00000 Atm.
 Atom     1 has atomic number  6 and mass  12.00000

 Molecular mass:   416.03883 amu.
 Principal axes and moments of inertia in atomic units:
                           1         2         3
     Eigenvalues --  9689.80670********************
           X            0.97730   0.21168   0.00893
           Y           -0.20614   0.95973  -0.19085
           Z           -0.04897   0.18467   0.98158
 This molecule is an asymmetric top.
 Rotational symmetry number  1.
 Warning -- assumption of classical behavior for rotation
           may cause significant error
 Rotational temperatures (Kelvin)      0.00894     0.00839     0.00506
 Rotational constants (GHZ):           0.18625     0.17488     0.10553
 Zero-point vibrational energy     840661.1 (Joules/Mol)
                                  200.92282 (Kcal/Mol)
 Warning -- explicit consideration of  42 degrees of freedom as
           vibrations may cause significant error
 Vibrational temperatures:     11.89    19.70    44.49    46.04    63.05
          (Kelvin)             66.65    77.75    84.32   118.88   162.91
                              168.16   173.73   233.27   249.11   263.76
                              273.48   284.71   311.81   321.30   341.61
                              381.69   392.87   441.08   445.89   493.37
                              504.63   547.30   557.52   589.36   591.51
                              611.36   628.59   634.74   658.43   659.58
                              696.28   732.42   774.22   791.38   821.27
                              862.51   865.35   901.42   901.85   960.94
                             1008.73  1009.44  1016.61  1025.00  1051.38
                             1052.50  1099.02  1100.37  1166.43  1208.59
                             1222.86  1227.73  1353.16  1355.41  1383.33
                             1416.72  1423.57  1426.08  1450.22  1453.56
                             1459.68  1460.24  1483.84  1495.75  1496.50
                             1507.39  1533.65  1536.58  1537.61  1565.01
                             1584.11  1584.88  1601.58  1602.57  1704.15
                             1705.26  1725.28  1726.84  1732.79  1778.57
                             1830.46  1841.09  1856.14  1917.84  1918.53
                             1936.79  1937.33  2025.25  2025.87  2115.03
                             2116.99  2124.87  2125.35  2137.79  2138.61
                             2167.90  2168.25  2332.64  2333.76  2333.87
                             2340.09  2340.34  2382.98  2469.53  2487.45
                             4398.94  4399.67  4484.65  4485.02  4543.93
                             4544.64  4559.32  4559.64  4576.90  4577.41
                             4589.65  4590.14  4605.81  4606.00  4627.32
                             4627.65

 Zero-point correction=                           0.320191 (Hartree/Particle)
 Thermal correction to Energy=                    0.346233
 Thermal correction to Enthalpy=                  0.347178
 Thermal correction to Gibbs Free Energy=         0.259984
 Sum of electronic and zero-point Energies=          -2019.366255
 Sum of electronic and thermal Energies=             -2019.340212
 Sum of electronic and thermal Enthalpies=           -2019.339268
 Sum of electronic and thermal Free Energies=        -2019.426462

                     E (Thermal)             CV                S
                      KCal/Mol        Cal/Mol-Kelvin    Cal/Mol-Kelvin
 Total                  217.265             97.446            183.515
 Electronic               0.000              0.000              0.000
 Translational            0.889              2.981             43.967
 Rotational               0.889              2.981             35.790
 Vibrational            215.487             91.484            103.757
 Vibration     1          0.593              1.987              8.389
 Vibration     2          0.593              1.986              7.386
 Vibration     3          0.594              1.984              5.769
 Vibration     4          0.594              1.983              5.701
 Vibration     5          0.595              1.980              5.078
 Vibration     6          0.595              1.979              4.969
 Vibration     7          0.596              1.976              4.664
 Vibration     8          0.596              1.974              4.504
 Vibration     9          0.600              1.961              3.827
 Vibration    10          0.607              1.938              3.213
 Vibration    11          0.608              1.935              3.151
 Vibration    12          0.609              1.932              3.088
 Vibration    13          0.622              1.889              2.525
 Vibration    14          0.627              1.876              2.401
 Vibration    15          0.631              1.863              2.294
 Vibration    16          0.633              1.854              2.227
 Vibration    17          0.637              1.843              2.153
 Vibration    18          0.646              1.816              1.986
 Vibration    19          0.649              1.806              1.932
 Vibration    20          0.656              1.783              1.822
 Vibration    21          0.671              1.737              1.627
 Vibration    22          0.676              1.723              1.577
 Vibration    23          0.697              1.661              1.381
 Vibration    24          0.699              1.655              1.363
 Vibration    25          0.722              1.590              1.199
 Vibration    26          0.728              1.574              1.163
 Vibration    27          0.750              1.512              1.038
 Vibration    28          0.756              1.497              1.010
 Vibration    29          0.774              1.449              0.928
 Vibration    30          0.775              1.446              0.923
 Vibration    31          0.787              1.416              0.875
 Vibration    32          0.797              1.390              0.836
 Vibration    33          0.801              1.380              0.823
 Vibration    34          0.816              1.344              0.773
 Vibration    35          0.816              1.342              0.771
 Vibration    36          0.840              1.286              0.700
 Vibration    37          0.864              1.230              0.636
 Vibration    38          0.893              1.166              0.569
 Vibration    39          0.905              1.140              0.544
 Vibration    40          0.927              1.094              0.503
 Vibration    41          0.958              1.033              0.451
 Vibration    42          0.960              1.029              0.447

                           ! Non-Optimized Parameters !
 Normal termination of Gaussian 16 at Wed Dec 20 12:34:36 2023.
