 Gaussian 16, Revision A.03,
 Gaussian 16:  ES64L-G16RevA.03 25-Dec-2016

 ----------------------------------------------------------------------
 #P UB3LYP/6-311++G(d,p) nosym opt freq SCRF=(PCM,Solvent=n,n-DiMethylF
 ormamide)
 ----------------------------------------------------------------------

 --------
 Oxidized
 --------
 Symbolic Z-matrix:
 Charge =  0 Multiplicity = 1

 SCF Done:  E(UB3LYP) =  -2994.44288252     A.U. after   15 cycles
 SCF Done:  E(UB3LYP) =  -2994.44295197     A.U. after   12 cycles
 SCF Done:  E(UB3LYP) =  -2994.44295586     A.U. after   11 cycles
 SCF Done:  E(UB3LYP) =  -2994.44296052     A.U. after    9 cycles
 Optimization completed.
    -- Stationary point found.
 Normal termination of Gaussian 16 at Sat Feb 10 10:07:38 2024.

 ----------------------------------------------------------------------
 #P Geom=AllCheck Guess=TCheck SCRF=Check GenChk UB3LYP/6-311++G(d,p) F
 req
 ----------------------------------------------------------------------

 Structure from the checkpoint file:  "005.chk"
 --------
 Oxidized
 --------
 Charge =  0 Multiplicity = 1

                          Input orientation:
 ---------------------------------------------------------------------
 Center     Atomic      Atomic             Coordinates (Angstroms)
 Number     Number       Type             X           Y           Z
 ---------------------------------------------------------------------
      1          6           0        2.280823   -0.067050    0.078775
      2          6           0        0.791331    0.073910    0.032990
      3          6           0        0.151221    1.254843    0.082526
      4          6           0       -1.317590    1.361630    0.036414
      5          8           0       -1.883770    2.447122    0.081978
      6          6           0       -2.108293    0.111609   -0.069110
      7          6           0       -1.493544   -1.075088   -0.120350
      8         35           0       -2.474013   -2.698128   -0.257030
      9          6           0        0.001491   -1.197040   -0.073557
     10          8           0        0.556813   -2.277339   -0.120345
     11          1           0        2.582607   -0.681792    0.931165
     12          1           0        2.758678    0.908933    0.157904
     13          1           0        2.646962   -0.571538   -0.819531
     14          1           0        0.692411    2.191278    0.159965
     15          1           0       -3.185126    0.218647   -0.101793
 ---------------------------------------------------------------------

 SCF Done:  E(UB3LYP) =  -2994.44296052     A.U. after    1 cycles

 Alpha  occ. eigenvalues -- -482.85277 -62.50546 -56.32591 -56.32204 -56.32166
 Alpha  occ. eigenvalues --  -19.15630 -19.14791 -10.30448 -10.29469 -10.27039
 Alpha  occ. eigenvalues --  -10.23064 -10.22306 -10.21117 -10.18298  -8.71510
 Alpha  occ. eigenvalues --   -6.54678  -6.53385  -6.53275  -2.65769  -2.65415
 Alpha  occ. eigenvalues --   -2.65332  -2.64303  -2.64302  -1.08928  -1.07584
 Alpha  occ. eigenvalues --   -0.88802  -0.84388  -0.78604  -0.73352  -0.70349
 Alpha  occ. eigenvalues --   -0.62390  -0.60696  -0.54382  -0.51846  -0.48208
 Alpha  occ. eigenvalues --   -0.47140  -0.45963  -0.45283  -0.43562  -0.43350
 Alpha  occ. eigenvalues --   -0.42013  -0.41174  -0.39886  -0.35864  -0.31320
 Alpha  occ. eigenvalues --   -0.30755  -0.30371  -0.28954  -0.28457
 Alpha virt. eigenvalues --   -0.14474  -0.03914  -0.02989  -0.01216  -0.00571
 Alpha virt. eigenvalues --    0.00899   0.01440   0.03150   0.03252   0.03607
 Alpha virt. eigenvalues --    0.05018   0.05347   0.06282   0.06845   0.06961

  Beta  occ. eigenvalues -- -482.85277 -62.50546 -56.32591 -56.32204 -56.32166
  Beta  occ. eigenvalues --  -19.15630 -19.14791 -10.30448 -10.29469 -10.27039
  Beta  occ. eigenvalues --  -10.23064 -10.22306 -10.21117 -10.18298  -8.71510
  Beta  occ. eigenvalues --   -6.54678  -6.53385  -6.53275  -2.65769  -2.65415
  Beta  occ. eigenvalues --   -2.65332  -2.64303  -2.64302  -1.08928  -1.07584
  Beta  occ. eigenvalues --   -0.88802  -0.84388  -0.78604  -0.73352  -0.70349
  Beta  occ. eigenvalues --   -0.62390  -0.60696  -0.54382  -0.51846  -0.48208
  Beta  occ. eigenvalues --   -0.47140  -0.45963  -0.45283  -0.43562  -0.43350
  Beta  occ. eigenvalues --   -0.42013  -0.41174  -0.39886  -0.35864  -0.31320
  Beta  occ. eigenvalues --   -0.30755  -0.30371  -0.28954  -0.28457
  Beta virt. eigenvalues --   -0.14474  -0.03914  -0.02989  -0.01216  -0.00571
  Beta virt. eigenvalues --    0.00899   0.01440   0.03150   0.03252   0.03607
  Beta virt. eigenvalues --    0.05018   0.05347   0.06282   0.06845   0.06961

 Mulliken charges and spin densities:
               1          2
     1  C   -0.357561  -0.000000
     2  C    1.642522  -0.000000
     3  C   -0.836356   0.000000
     4  C   -0.338948  -0.000000
     5  O   -0.291122  -0.000000
     6  C    0.164759   0.000000
     7  C    0.783447  -0.000000
     8  Br  -0.073773   0.000000
     9  C   -1.546316   0.000000
    10  O   -0.200787  -0.000000
    11  H    0.191575  -0.000000
    12  H    0.171353  -0.000000
    13  H    0.191694  -0.000000
    14  H    0.215615   0.000000
    15  H    0.283900  -0.000000
 Sum of Mulliken charges =  -0.00000   0.00000

 Dipole moment (field-independent basis, Debye):
    X=              1.9043    Y=              0.6456    Z=              0.1115  Tot=              2.0138
 Quadrupole moment (field-independent basis, Debye-Ang):
   XX=            -67.0443   YY=            -86.3433   ZZ=            -69.5551
   XY=              9.5651   XZ=              0.6788   YZ=             -0.6851

  Exact polarizability: 152.033 -19.355 220.009   1.474   8.025  79.261
 Approx polarizability: 169.320 -49.738 288.157  -0.266  10.294  92.845

                      1                      2                      3
                      A                      A                      A
 Frequencies --     56.5585               127.7392               145.8219
 Red. masses --      7.5289                 5.0350                 1.2909
 Frc consts  --      0.0142                 0.0484                 0.0162
 IR Inten    --      9.9295                 6.4491                 3.0734

                      4                      5                      6
                      A                      A                      A
 Frequencies --    174.7412               189.3605               263.6147
 Red. masses --      8.8110                 2.4562                15.5713
 Frc consts  --      0.1585                 0.0519                 0.6375
 IR Inten    --      0.4847                 0.0796                 1.5162

                      7                      8                      9
                      A                      A                      A
 Frequencies --    297.2032               297.8773               417.6395
 Red. masses --      4.6333                 3.5657                 8.5878
 Frc consts  --      0.2411                 0.1864                 0.8825
 IR Inten    --      1.3141                 0.0930                39.3259

                     10                     11                     12
                      A                      A                      A
 Frequencies --    437.1738               450.3186               511.4664
 Red. masses --      3.8819                 8.2378                 7.1992
 Frc consts  --      0.4371                 0.9842                 1.1096
 IR Inten    --      0.0624                19.7908                 2.7342

                     13                     14                     15
                      A                      A                      A
 Frequencies --    619.5973               659.0110               776.3916
 Red. masses --      4.5100                 3.3205                 5.2662
 Frc consts  --      1.0201                 0.8496                 1.8703
 IR Inten    --      0.2698                 4.1088                 1.0782

                     16                     17                     18
                      A                      A                      A
 Frequencies --    781.9449               786.3655               875.6739
 Red. masses --      7.2600                 8.1292                 1.3151
 Frc consts  --      2.6154                 2.9617                 0.5941
 IR Inten    --      4.1239               111.3904                 0.0033

                     19                     20                     21
                      A                      A                      A
 Frequencies --    910.5919               924.5954              1020.9379
 Red. masses --      3.6097                 1.5432                 1.7957
 Frc consts  --      1.7635                 0.7773                 1.1028
 IR Inten    --     75.9304                72.8661                69.0918

                     22                     23                     24
                      A                      A                      A
 Frequencies --   1057.9131              1099.1834              1203.7076
 Red. masses --      1.5342                 2.7814                 2.1765
 Frc consts  --      1.0116                 1.9800                 1.8580
 IR Inten    --      4.0283                64.1561                47.1456

                     25                     26                     27
                      A                      A                      A
 Frequencies --   1283.4720              1305.8210              1350.7126
 Red. masses --      5.1865                 1.5958                 2.3117
 Frc consts  --      5.0339                 1.6032                 2.4849
 IR Inten    --    291.4487                32.8681                 0.3263

                     28                     29                     30
                      A                      A                      A
 Frequencies --   1408.6184              1458.6209              1469.0956
 Red. masses --      1.2718                 1.0424                 1.0698
 Frc consts  --      1.4868                 1.3067                 1.3603
 IR Inten    --     17.4259                14.9863                21.1688

                     31                     32                     33
                      A                      A                      A
 Frequencies --   1631.8628              1679.9275              1691.8417
 Red. masses --      8.5442                11.1979                 7.7895
 Frc consts  --     13.4057                18.6195                13.1365
 IR Inten    --    179.9711               314.6137               673.4869

                     34                     35                     36
                      A                      A                      A
 Frequencies --   1717.9402              3038.3796              3089.8988
 Red. masses --     12.4282                 1.0366                 1.0994
 Frc consts  --     21.6110                 5.6380                 6.1842
 IR Inten    --    285.1658                 8.1623                 8.9304

                     37                     38                     39
                      A                      A                      A
 Frequencies --   3130.4825              3183.7348              3205.9029
 Red. masses --      1.1026                 1.0927                 1.0941
 Frc consts  --      6.3663                 6.5259                 6.6256
 IR Inten    --     14.0944                 5.6269                 0.4845

 - Thermochemistry -
 -------------------
 Temperature   298.150 Kelvin.  Pressure   1.00000 Atm.
 Atom     1 has atomic number  6 and mass  12.00000

 Molecular mass:   199.94729 amu.
 Principal axes and moments of inertia in atomic units:
                           1         2         3
     Eigenvalues --  1240.853612739.408253969.17229
           X            0.56743   0.82262  -0.03633
           Y            0.82032  -0.56857  -0.06161
           Z            0.07134  -0.00515   0.99744
 This molecule is an asymmetric top.
 Rotational symmetry number  1.
 Warning -- assumption of classical behavior for rotation
           may cause significant error
 Rotational temperatures (Kelvin)      0.06980     0.03162     0.02182
 Rotational constants (GHZ):           1.45444     0.65881     0.45469
 Zero-point vibrational energy     267555.2 (Joules/Mol)
                                   63.94723 (Kcal/Mol)
 Warning -- explicit consideration of  13 degrees of freedom as
           vibrations may cause significant error
 Vibrational temperatures:     81.38   183.79   209.81   251.41   272.45
          (Kelvin)            379.28   427.61   428.58   600.89   629.00
                              647.91   735.89   891.46   948.17  1117.05
                             1125.04  1131.40  1259.90  1310.14  1330.29
                             1468.90  1522.10  1581.48  1731.87  1846.63
                             1878.79  1943.37  2026.69  2098.63  2113.70
                             2347.89  2417.04  2434.18  2471.73  4371.55
                             4445.68  4504.07  4580.68  4612.58

 Zero-point correction=                           0.101906 (Hartree/Particle)
 Thermal correction to Energy=                    0.111290
 Thermal correction to Enthalpy=                  0.112234
 Thermal correction to Gibbs Free Energy=         0.065868
 Sum of electronic and zero-point Energies=          -2994.341054
 Sum of electronic and thermal Energies=             -2994.331670
 Sum of electronic and thermal Enthalpies=           -2994.330726
 Sum of electronic and thermal Free Energies=        -2994.377093

                     E (Thermal)             CV                S
                      KCal/Mol        Cal/Mol-Kelvin    Cal/Mol-Kelvin
 Total                   69.836             33.446             97.586
 Electronic               0.000              0.000              0.000
 Translational            0.889              2.981             41.783
 Rotational               0.889              2.981             30.979
 Vibrational             68.058             27.484             24.824
 Vibration     1          0.596              1.975              4.574
 Vibration     2          0.611              1.925              2.980
 Vibration     3          0.617              1.907              2.726
 Vibration     4          0.627              1.874              2.384
 Vibration     5          0.633              1.855              2.234
 Vibration     6          0.670              1.740              1.638
 Vibration     7          0.691              1.679              1.433
 Vibration     8          0.691              1.678              1.429
 Vibration     9          0.781              1.432              0.900
 Vibration    10          0.797              1.389              0.836
 Vibration    11          0.809              1.360              0.795
 Vibration    12          0.867              1.225              0.630
 Vibration    13          0.980              0.991              0.417

                           ! Non-Optimized Parameters !
 Normal termination of Gaussian 16 at Sat Feb 10 10:17:25 2024.
