 Q-Chem 5.4, Q-Chem, Inc., Pleasanton, CA (2021)
 Q-Chem 5.4.0 for Intel X86 EM64T Linux

User input:
--------------------------------------------------------------
$molecule
-1 2
C                  0.2561850000      3.9358110000      0.3266390000
C                 -0.9080710000      3.5440990000      0.9633550000
C                 -1.2667710000      2.1824560000      0.9946130000
C                  1.0962440000      2.9901950000     -0.2938620000
C                  0.7350910000      1.6221550000     -0.2639970000
C                 -0.4548190000      1.2411330000      0.3875050000
C                  2.3204710000      3.4475160000     -0.9752340000
C                  3.1467860000      2.4059290000     -1.5579290000
C                  2.8037690000      1.0527200000     -1.5306710000
C                  1.5782570000      0.5992520000     -0.8996810000
O                  2.6054340000      4.6709120000     -1.0271710000
O                  1.2443000000     -0.6173450000     -0.8771770000
H                  0.5567460000      4.9762340000      0.2829900000
H                 -1.5451380000      4.2846980000      1.4381680000
H                 -2.1809010000      1.8732490000      1.4932340000
H                 -0.7055670000      0.1866520000      0.3928550000
S                  4.6169830000      2.9154610000     -2.4571490000
C                  3.6628610000     -0.0158570000     -2.1568710000
H                  3.5554330000     -0.0298260000     -3.2492150000
H                  3.3487550000     -0.9905120000     -1.7826670000
H                  4.7218650000      0.1534680000     -1.9484570000
C                  5.5326910000      3.9338320000     -1.2207560000
C                  6.7701740000      4.5418830000     -1.8749080000
H                  5.8120610000      3.2866900000     -0.3854710000
H                  4.8444490000      4.7000290000     -0.8680460000
H                  7.4409390000      3.7716700000     -2.2693640000
H                  7.3316130000      5.1347950000     -1.1446470000
H                  6.4917780000      5.2022700000     -2.7010960000
$end
$rem
MAX_SCF_CYCLES=200
BASIS  =  6-311++G(d,p)
GUI  =  2
JOB_TYPE  =  SP
METHOD  =  B3LYP
SOLVENT_METHOD = PCM
$end
$pcm
theory = CPCM
$end
$solvent
dielectric 37.219
opticaldielectric 1.43
$end

--------------------------------------------------------------

             Standard Nuclear Orientation (Angstroms)
    I     Atom           X                Y                Z
 ----------------------------------------------------------------
    1      C       0.2561850000     3.9358110000     0.3266390000
    2      C      -0.9080710000     3.5440990000     0.9633550000
    3      C      -1.2667710000     2.1824560000     0.9946130000
    4      C       1.0962440000     2.9901950000    -0.2938620000
    5      C       0.7350910000     1.6221550000    -0.2639970000
    6      C      -0.4548190000     1.2411330000     0.3875050000
    7      C       2.3204710000     3.4475160000    -0.9752340000
    8      C       3.1467860000     2.4059290000    -1.5579290000
    9      C       2.8037690000     1.0527200000    -1.5306710000
   10      C       1.5782570000     0.5992520000    -0.8996810000
   11      O       2.6054340000     4.6709120000    -1.0271710000
   12      O       1.2443000000    -0.6173450000    -0.8771770000
   13      H       0.5567460000     4.9762340000     0.2829900000
   14      H      -1.5451380000     4.2846980000     1.4381680000
   15      H      -2.1809010000     1.8732490000     1.4932340000
   16      H      -0.7055670000     0.1866520000     0.3928550000
   17      S       4.6169830000     2.9154610000    -2.4571490000
   18      C       3.6628610000    -0.0158570000    -2.1568710000
   19      H       3.5554330000    -0.0298260000    -3.2492150000
   20      H       3.3487550000    -0.9905120000    -1.7826670000
   21      H       4.7218650000     0.1534680000    -1.9484570000
   22      C       5.5326910000     3.9338320000    -1.2207560000
   23      C       6.7701740000     4.5418830000    -1.8749080000
   24      H       5.8120610000     3.2866900000    -0.3854710000
   25      H       4.8444490000     4.7000290000    -0.8680460000
   26      H       7.4409390000     3.7716700000    -2.2693640000
   27      H       7.3316130000     5.1347950000    -1.1446470000
   28      H       6.4917780000     5.2022700000    -2.7010960000
 ----------------------------------------------------------------

    8   -1051.6035917574      8.35e-06  Convergence criterion met
 Total energy in the final basis set =    -1051.6035917574

                    Orbital Energies (a.u.)
 --------------------------------------------------------------

 Alpha MOs
 -- Occupied --
-88.8346 -19.0780 -19.0769 -10.2277 -10.2225 -10.1910 -10.1850 -10.1771
-10.1735 -10.1729 -10.1726 -10.1721 -10.1699 -10.1694 -10.1599 -10.1513
 -7.9207  -5.8846  -5.8809  -5.8748  -1.0057  -1.0016  -0.8589  -0.8246
 -0.7852  -0.7548  -0.7501  -0.7193  -0.6769  -0.6566  -0.6127  -0.5946
 -0.5779  -0.5524  -0.5133  -0.4904  -0.4670  -0.4521  -0.4465  -0.4318
 -0.4291  -0.4236  -0.4172  -0.4119  -0.3979  -0.3859  -0.3821  -0.3736
 -0.3708  -0.3620  -0.3538  -0.3492  -0.3433  -0.3366  -0.3162  -0.2720
 -0.2570  -0.2544  -0.2482  -0.2379  -0.2194  -0.1537

 Beta MOs
 -- Occupied --
-88.8345 -19.0727 -19.0709 -10.2260 -10.2207 -10.1897 -10.1849 -10.1753
-10.1731 -10.1724 -10.1723 -10.1717 -10.1698 -10.1693 -10.1599 -10.1514
 -7.9207  -5.8846  -5.8809  -5.8746  -0.9961  -0.9909  -0.8568  -0.8210
 -0.7836  -0.7530  -0.7483  -0.7162  -0.6752  -0.6501  -0.6116  -0.5926
 -0.5758  -0.5497  -0.5110  -0.4880  -0.4645  -0.4514  -0.4459  -0.4299
 -0.4234  -0.4191  -0.4133  -0.4077  -0.3908  -0.3827  -0.3796  -0.3715
 -0.3620  -0.3552  -0.3501  -0.3431  -0.3385  -0.3344  -0.3129  -0.2531
 -0.2502  -0.2481  -0.2426  -0.2329  -0.2140

          Ground-State Mulliken Net Atomic Charges

     Atom                 Charge (a.u.)    Spin (a.u.)
  --------------------------------------------------------
      1 C                    -0.023393       0.028714
      2 C                    -0.538655       0.024977
      3 C                    -0.447212       0.019929
      4 C                     0.121901      -0.002822
      5 C                     0.734584       0.014819
      6 C                     0.007755       0.027548
      7 C                    -1.189123       0.113946
      8 C                     1.294960       0.087665
      9 C                     0.935021       0.141131
     10 C                    -1.243789       0.096670
     11 O                    -0.456936       0.200607
     12 O                    -0.479238       0.227081
     13 H                     0.183405      -0.002097
     14 H                     0.196904      -0.002050
     15 H                     0.202339      -0.001947
     16 H                     0.169571      -0.002437
     17 S                    -0.623531       0.013546
     18 C                    -0.312616      -0.003124
     19 H                     0.192623       0.008649
     20 H                     0.171019      -0.000809
     21 H                     0.146994       0.004019
     22 C                    -0.294452       0.003300
     23 C                    -0.611952       0.002662
     24 H                     0.196470       0.000297
     25 H                     0.196017      -0.000693
     26 H                     0.155611      -0.000048
     27 H                     0.157226       0.000074
     28 H                     0.158494       0.000394
  --------------------------------------------------------
  Sum of atomic charges =    -1.000000

                    Cartesian Multipole Moments
 -----------------------------------------------------------------
    Charge (ESU x 10^10)
                -4.8032
    Dipole Moment (Debye)
         X      -9.4910      Y      -9.3458      Z       6.6447
       Tot      14.8854
    Quadrupole Moments (Debye-Ang)
        XX    -121.8168     XY     -24.9534     YY    -154.6762
        XZ      15.9276     YZ      17.7674     ZZ    -118.4126

 Total job time:  53.96s(wall), 356.99s(cpu)
        *  Thank you very much for using Q-Chem.  Have a nice day.  *
