 Q-Chem 5.4, Q-Chem, Inc., Pleasanton, CA (2021)
 Q-Chem 5.4.0 for Intel X86 EM64T Linux

User input:
--------------------------------------------------------------
$molecule
-1 2
O                  1.9790880000     -3.0746810000      0.8565720000
C                  1.4692790000     -1.9572620000      0.5853430000
C                  0.0802760000     -1.6883200000      0.4938290000
C                 -0.4629890000     -0.4408790000      0.1913880000
O                  0.3985180000      0.6367420000     -0.0422020000
C                  1.7484600000      0.4672040000      0.0253800000
C                  2.5363300000      1.5947200000     -0.2212760000
C                  3.9278090000      1.4884010000     -0.1676290000
C                  4.5273620000      0.2639510000      0.1303800000
C                  3.7301440000     -0.8545390000      0.3747800000
C                  2.3329170000     -0.7736300000      0.3270070000
C                 -1.8420010000     -0.0880690000      0.0800170000
C                 -2.8864850000     -1.0426590000      0.2819370000
C                 -4.2194840000     -0.6896500000      0.1710470000
C                 -4.6049140000      0.6238730000     -0.1451540000
C                 -3.5945880000      1.5766740000     -0.3472250000
C                 -2.2548170000      1.2414520000     -0.2403130000
H                 -0.5906270000     -2.5181130000      0.6733990000
H                  2.0477870000      2.5348450000     -0.4506840000
H                  4.5382230000      2.3653470000     -0.3595070000
H                  5.6090000000      0.1828970000      0.1716530000
H                  4.1571430000     -1.8229110000      0.6094840000
H                 -2.6346340000     -2.0670490000      0.5275340000
H                 -4.9796700000     -1.4491870000      0.3332010000
H                 -5.6519800000      0.8927590000     -0.2303180000
H                 -3.8626560000      2.6009410000     -0.5930800000
H                 -1.4974900000      1.9971430000     -0.4016160000
$end
$rem
MAX_SCF_CYCLES=200
BASIS  =  6-311++G(d,p)
GUI  =  2
JOB_TYPE  =  SP
METHOD  =  B3LYP
SOLVENT_METHOD = COSMO
$end
$solvent
dielectric 37.219
opticaldielectric 1.43
$end

--------------------------------------------------------------

             Standard Nuclear Orientation (Angstroms)
    I     Atom           X                Y                Z
 ----------------------------------------------------------------
    1      O      -2.0124280855    -2.8739189168     0.0007830884
    2      C      -1.4264882841    -1.7609185100     0.0002809673
    3      C      -0.0213606074    -1.5721063957    -0.0000975152
    4      C       0.6069452095    -0.3279407601    -0.0004699093
    5      O      -0.1787911467     0.8299210508    -0.0006255432
    6      C      -1.5380767214     0.7404978076    -0.0003545249
    7      C      -2.2468684788     1.9448585564    -0.0006391819
    8      C      -3.6432600033     1.9228096109    -0.0003354762
    9      C      -4.3261632445     0.7057665696     0.0002688434
   10      C      -3.6074191331    -0.4899401778     0.0005063078
   11      C      -2.2070432219    -0.4942982960     0.0001466883
   12      C       2.0078971917    -0.0524665705    -0.0003898812
   13      C       2.9847437430    -1.0958892417    -0.0011146100
   14      C       4.3397912629    -0.8172420721    -0.0006107068
   15      C       4.8151473092     0.5048461241     0.0005973271
   16      C       3.8722712625     1.5442716780     0.0011800993
   17      C       2.5116883485     1.2842637148     0.0006410653
   18      H       0.5911892335    -2.4641239230     0.0001608266
   19      H      -1.6943781719     2.8775383309    -0.0010951531
   20      H      -4.1921740030     2.8593725140    -0.0005692264
   21      H      -5.4115082359     0.6902701455     0.0005601263
   22      H      -4.1004185218    -1.4553985272     0.0009776762
   23      H       2.6626763401    -2.1300040088    -0.0020743932
   24      H       5.0462824961    -1.6430404270    -0.0011965773
   25      H       5.8789540044     0.7151196039     0.0010157297
   26      H       4.2105173034     2.5772367361     0.0020886515
   27      H       1.8077856157     2.1059402591     0.0012150198
 ----------------------------------------------------------------

   10    -728.2945860659      8.74e-06  Convergence criterion met
 Total energy in the final basis set =     -728.2945860659
    5    -728.3751451281      6.17e-06  Convergence criterion met
 Total energy in the final basis set =     -728.3751451281

                    Orbital Energies (a.u.)
 --------------------------------------------------------------

 Alpha MOs
 -- Occupied --
-19.1694 -19.0635 -10.2391 -10.2242 -10.2174 -10.1756 -10.1743 -10.1742
-10.1703 -10.1689 -10.1679 -10.1652 -10.1648 -10.1638 -10.1612 -10.1587
-10.1496  -1.0890  -0.9908  -0.8597  -0.8472  -0.7947  -0.7668  -0.7444
 -0.7369  -0.7256  -0.6550  -0.6319  -0.6008  -0.5899  -0.5783  -0.5331
 -0.5220  -0.5146  -0.4793  -0.4602  -0.4559  -0.4549  -0.4361  -0.4286
 -0.4211  -0.4140  -0.4060  -0.4008  -0.3818  -0.3758  -0.3715  -0.3574
 -0.3512  -0.3500  -0.3381  -0.3213  -0.2919  -0.2577  -0.2558  -0.2376
 -0.2369  -0.2250  -0.1123

 Beta MOs
 -- Occupied --
-19.1678 -19.0602 -10.2391 -10.2193 -10.2152 -10.1757 -10.1747 -10.1739
-10.1698 -10.1682 -10.1677 -10.1661 -10.1657 -10.1619 -10.1593 -10.1559
-10.1498  -1.0855  -0.9847  -0.8577  -0.8447  -0.7895  -0.7644  -0.7425
 -0.7348  -0.7229  -0.6498  -0.6298  -0.5987  -0.5886  -0.5754  -0.5306
 -0.5204  -0.5128  -0.4776  -0.4594  -0.4538  -0.4456  -0.4351  -0.4277
 -0.4199  -0.4132  -0.4032  -0.3991  -0.3747  -0.3714  -0.3605  -0.3567
 -0.3481  -0.3439  -0.3373  -0.3204  -0.2785  -0.2519  -0.2490  -0.2340
 -0.2310  -0.2116

          Ground-State Mulliken Net Atomic Charges

     Atom                 Charge (a.u.)    Spin (a.u.)
  --------------------------------------------------------
      1 O                    -0.598646       0.118170
      2 C                    -0.705110       0.171231
      3 C                    -0.541246      -0.022389
      4 C                     0.534018       0.277099
      5 O                    -0.059524       0.036454
      6 C                    -1.612822      -0.018977
      7 C                    -0.358346       0.027886
      8 C                    -0.498580       0.035822
      9 C                    -0.215684       0.004758
     10 C                     0.289404       0.074541
     11 C                     1.987768      -0.019823
     12 C                     0.993325      -0.062431
     13 C                    -0.597934       0.156051
     14 C                    -0.581383      -0.065869
     15 C                    -0.443672       0.222891
     16 C                    -0.413534      -0.070378
     17 C                    -0.044868       0.173802
     18 H                     0.196609       0.001146
     19 H                     0.198683      -0.003045
     20 H                     0.209625      -0.002538
     21 H                     0.196482      -0.000409
     22 H                     0.186327      -0.006311
     23 H                     0.116252      -0.009501
     24 H                     0.210214       0.003490
     25 H                     0.173222      -0.015210
     26 H                     0.205700       0.003790
     27 H                     0.173720      -0.010252
  --------------------------------------------------------
  Sum of atomic charges =    -1.000000

                    Cartesian Multipole Moments
 -----------------------------------------------------------------
    Charge (ESU x 10^10)
                -4.8032
    Dipole Moment (Debye)
         X       2.5250      Y       7.8314      Z      -0.0000
       Tot       8.2284
    Quadrupole Moments (Debye-Ang)
        XX    -120.5938     XY     -20.0616     YY    -121.3364
        XZ       0.0016     YZ       0.0133     ZZ    -109.5577

 Total job time:  101.86s(wall), 609.41s(cpu)
        *  Thank you very much for using Q-Chem.  Have a nice day.  *
