 Gaussian 16, Revision A.03,
 Gaussian 16:  ES64L-G16RevA.03 25-Dec-2016

 ----------------------------------------------
 #P UB3LYP/6-311++G(d,p) nosym opt freq SCF=YQC
 ----------------------------------------------

 -------
 Reduced
 -------
 Symbolic Z-matrix:
 Charge = -2 Multiplicity = 1

 SCF Done:  E(UB3LYP) =  -689.201762990     a.u. after    9 cycles
 SCF Done:  E(UB3LYP) =  -689.232112740     A.U. after   33 cycles
 SCF Done:  E(UB3LYP) =  -689.232112747     a.u. after    2 cycles
 SCF Done:  E(UB3LYP) =  -689.245693472     a.u. after   25 cycles
 SCF Done:  E(UB3LYP) =  -689.245854554     A.U. after   27 cycles
 SCF Done:  E(UB3LYP) =  -689.221784270     a.u. after   50 cycles
 SCF Done:  E(UB3LYP) =  -689.222246194     A.U. after   25 cycles
 SCF Done:  E(UB3LYP) =  -689.247511226     a.u. after   28 cycles
 SCF Done:  E(UB3LYP) =  -689.247849452     A.U. after   25 cycles
 SCF Done:  E(UB3LYP) =  -689.251899788     a.u. after   26 cycles
 SCF Done:  E(UB3LYP) =  -689.296317014     a.u. after    3 cycles
 SCF Done:  E(UB3LYP) =  -689.296348863     A.U. after   28 cycles
 SCF Done:  E(UB3LYP) =  -689.296335121     a.u. after    1 cycles
 SCF Done:  E(UB3LYP) =  -689.296349449     A.U. after   23 cycles
 SCF Done:  E(UB3LYP) =  -689.296342156     a.u. after    1 cycles
 SCF Done:  E(UB3LYP) =  -689.296349701     A.U. after   22 cycles
 SCF Done:  E(UB3LYP) =  -689.296348877     a.u. after    1 cycles
 SCF Done:  E(UB3LYP) =  -689.296349734     A.U. after   21 cycles
 Optimization completed.
    -- Stationary point found.
 Normal termination of Gaussian 16 at Thu Dec 21 12:51:45 2023.

 ----------------------------------------------------------------------
 #P Geom=AllCheck Guess=TCheck SCRF=Check GenChk UB3LYP/6-311++G(d,p) F
 req
 ----------------------------------------------------------------------

 Structure from the checkpoint file:  "089-an.chk"
 -------
 Reduced
 -------
 Charge = -2 Multiplicity = 1

                          Input orientation:
 ---------------------------------------------------------------------
 Center     Atomic      Atomic             Coordinates (Angstroms)
 Number     Number       Type             X           Y           Z
 ---------------------------------------------------------------------
      1          6           0        1.688616    1.072694   -0.820097
      2          6           0        0.471296    1.547670   -0.217327
      3          6           0       -0.516729    0.684320    0.285802
      4          6           0       -0.382744   -0.748372    0.268908
      5          6           0        0.838339   -1.216656   -0.321304
      6          6           0        1.811487   -0.356609   -0.846731
      7          8           0        2.596556    1.863186   -1.317429
      8          8           0       -1.277999   -1.556550    0.760754
      9          8           0        2.914566   -0.935097   -1.483947
     10          6           0        4.152955   -0.643202   -0.860391
     11          6           0        0.277266    3.045797   -0.180614
     12          6           0       -1.774856    1.236154    0.915098
     13          1           0        4.301493    0.439970   -0.799827
     14          1           0        4.937494   -1.098871   -1.479676
     15          1           0        4.199779   -1.089952    0.147241
     16          8           0        1.116107   -2.587899   -0.318125
     17          6           0        0.214124   -3.355773   -1.095589
     18          1           0       -0.813211   -3.198511   -0.750844
     19          1           0        0.499324   -4.408902   -0.968210
     20          1           0        0.299540   -3.097610   -2.164774
     21          1           0        1.165795    3.514312   -0.612364
     22          1           0        0.133116    3.429494    0.842155
     23          1           0       -0.604843    3.372975   -0.757363
     24          1           0       -2.352410    1.869499    0.222704
     25          1           0       -1.566693    1.861324    1.800308
     26          1           0       -2.397450    0.392868    1.225974
 ---------------------------------------------------------------------

 SCF Done:  E(UB3LYP) =  -689.296349734     a.u. after    1 cycles
 SCF Done:  E(UB3LYP) =  -689.296349734     A.U. after    2 cycles

 Alpha  occ. eigenvalues --  -18.86417 -18.86415 -18.75657 -18.75656  -9.95909
 Alpha  occ. eigenvalues --   -9.95908  -9.92037  -9.91987  -9.91414  -9.91412
 Alpha  occ. eigenvalues --   -9.90564  -9.90563  -9.87824  -9.87774  -0.78199
 Alpha  occ. eigenvalues --   -0.76517  -0.66650  -0.66327  -0.53854  -0.49387
 Alpha  occ. eigenvalues --   -0.45962  -0.44162  -0.42940  -0.36849  -0.36755
 Alpha  occ. eigenvalues --   -0.28913  -0.27781  -0.23395  -0.21618  -0.21285
 Alpha  occ. eigenvalues --   -0.20207  -0.18852  -0.18278  -0.17073  -0.16959
 Alpha  occ. eigenvalues --   -0.14176  -0.13913  -0.12610  -0.11732  -0.10601
 Alpha  occ. eigenvalues --   -0.09425  -0.08498  -0.08466  -0.06293  -0.06259
 Alpha  occ. eigenvalues --   -0.04650  -0.00968  -0.00875   0.04254   0.06279
 Alpha  occ. eigenvalues --    0.06439   0.06782   0.14436
 Alpha virt. eigenvalues --    0.16854   0.17370   0.17594   0.19386   0.20212
 Alpha virt. eigenvalues --    0.20817   0.20948   0.22025   0.23010   0.23038
 Alpha virt. eigenvalues --    0.23200   0.24946   0.24962   0.26633   0.27881

  Beta  occ. eigenvalues --  -18.86417 -18.86415 -18.75657 -18.75656  -9.95909
  Beta  occ. eigenvalues --   -9.95908  -9.92037  -9.91987  -9.91414  -9.91412
  Beta  occ. eigenvalues --   -9.90564  -9.90563  -9.87824  -9.87774  -0.78199
  Beta  occ. eigenvalues --   -0.76517  -0.66650  -0.66327  -0.53854  -0.49387
  Beta  occ. eigenvalues --   -0.45962  -0.44162  -0.42940  -0.36849  -0.36755
  Beta  occ. eigenvalues --   -0.28913  -0.27781  -0.23395  -0.21618  -0.21285
  Beta  occ. eigenvalues --   -0.20207  -0.18852  -0.18278  -0.17073  -0.16959
  Beta  occ. eigenvalues --   -0.14176  -0.13913  -0.12610  -0.11732  -0.10601
  Beta  occ. eigenvalues --   -0.09425  -0.08498  -0.08466  -0.06293  -0.06259
  Beta  occ. eigenvalues --   -0.04650  -0.00968  -0.00875   0.04254   0.06279
  Beta  occ. eigenvalues --    0.06439   0.06782   0.14436
  Beta virt. eigenvalues --    0.16854   0.17370   0.17594   0.19386   0.20212
  Beta virt. eigenvalues --    0.20817   0.20948   0.22025   0.23010   0.23038
  Beta virt. eigenvalues --    0.23200   0.24946   0.24962   0.26633   0.27881

 Mulliken charges and spin densities:
               1          2
     1  C   -1.032424  -0.000000
     2  C    0.817921   0.000000
     3  C    0.818396   0.000000
     4  C   -1.031671  -0.000000
     5  C    0.114094  -0.000000
     6  C    0.112902  -0.000000
     7  O   -0.555245  -0.000000
     8  O   -0.555230  -0.000000
     9  O   -0.173763   0.000000
    10  C    0.122032  -0.000001
    11  C   -0.558150   0.000000
    12  C   -0.558246   0.000000
    13  H    0.200002  -0.000000
    14  H   -0.232539   0.000001
    15  H   -0.013782   0.000000
    16  O   -0.173880   0.000000
    17  C    0.122054  -0.000001
    18  H    0.199933  -0.000000
    19  H   -0.232716   0.000001
    20  H   -0.013665   0.000000
    21  H    0.174845   0.000000
    22  H    0.080694  -0.000000
    23  H    0.056437   0.000000
    24  H    0.080725  -0.000000
    25  H    0.056438   0.000000
    26  H    0.174839   0.000000
 Sum of Mulliken charges =  -2.00000   0.00000

 Dipole moment (field-independent basis, Debye):
    X=             -9.2481    Y=              2.6425    Z=              4.0134  Tot=             10.4220
 Quadrupole moment (field-independent basis, Debye-Ang):
   XX=           -146.8974   YY=           -144.5569   ZZ=           -111.1553
   XY=             -5.8318   XZ=             24.9235   YZ=              5.2485

  Exact polarizability:1345.065 167.8341269.150-192.420 149.502 318.457
 Approx polarizability: 950.949-303.9371197.593-218.996 208.762 360.791

                      1                      2                      3
                      A                      A                      A
 Frequencies --     73.2375                85.7165                85.8520
 Red. masses --      1.2190                 3.0048                 3.1416
 Frc consts  --      0.0039                 0.0130                 0.0136
 IR Inten    --      6.3586                 2.1223                 9.8150

                      4                      5                      6
                      A                      A                      A
 Frequencies --     93.3005                97.6626               131.0436
 Red. masses --      3.7247                 2.5948                 1.0577
 Frc consts  --      0.0191                 0.0146                 0.0107
 IR Inten    --      8.4706                 7.7569                 3.2422

                      7                      8                      9
                      A                      A                      A
 Frequencies --    142.0600               179.3102               180.7279
 Red. masses --      2.8839                 1.3397                 1.1497
 Frc consts  --      0.0343                 0.0254                 0.0221
 IR Inten    --      1.3683                 6.8003                19.5941

                     10                     11                     12
                      A                      A                      A
 Frequencies --    190.9210               244.4169               268.9042
 Red. masses --      2.1436                 3.6575                 4.1329
 Frc consts  --      0.0460                 0.1287                 0.1761
 IR Inten    --     49.5315                 8.6920                11.3517

                     13                     14                     15
                      A                      A                      A
 Frequencies --    307.4106               324.1661               327.5569
 Red. masses --      2.6179                 3.3519                 6.8291
 Frc consts  --      0.1458                 0.2075                 0.4317
 IR Inten    --      0.0168                 3.7154               170.3773

                     16                     17                     18
                      A                      A                      A
 Frequencies --    349.1110               369.4352               393.5124
 Red. masses --      8.5116                 9.0779                 6.6201
 Frc consts  --      0.6112                 0.7300                 0.6040
 IR Inten    --      0.2479                26.6672                61.2625

                     19                     20                     21
                      A                      A                      A
 Frequencies --    403.1411               449.8412               497.5216
 Red. masses --      6.9970                 8.1050                 4.8928
 Frc consts  --      0.6700                 0.9663                 0.7136
 IR Inten    --      1.1831               446.7324                16.6918

                     22                     23                     24
                      A                      A                      A
 Frequencies --    537.1519               602.8566               613.4491
 Red. masses --      6.7224                 5.6149                 5.2431
 Frc consts  --      1.1428                 1.2023                 1.1625
 IR Inten    --    218.1908                15.0155                 3.2281

                     25                     26                     27
                      A                      A                      A
 Frequencies --    720.2558               732.5629               764.5094
 Red. masses --      4.2756                 5.9457                 8.9172
 Frc consts  --      1.3068                 1.8799                 3.0708
 IR Inten    --      1.2554                 9.1673                 0.0035

                     28                     29                     30
                      A                      A                      A
 Frequencies --    878.4120               929.6384               984.5031
 Red. masses --      3.9806                 4.4171                 1.6738
 Frc consts  --      1.8096                 2.2491                 0.9558
 IR Inten    --    147.4683                82.8455                 9.1060

                     31                     32                     33
                      A                      A                      A
 Frequencies --    984.5454              1023.6977              1042.4427
 Red. masses --      4.6627                 1.3856                 1.4965
 Frc consts  --      2.6629                 0.8555                 0.9581
 IR Inten    --    117.3978                 3.1681                 3.8532

                     34                     35                     36
                      A                      A                      A
 Frequencies --   1050.6331              1085.3913              1093.9669
 Red. masses --      6.1567                 8.7964                 2.8090
 Frc consts  --      4.0041                 6.1056                 1.9807
 IR Inten    --    244.1962               574.4662               129.1012

                     37                     38                     39
                      A                      A                      A
 Frequencies --   1141.5339              1159.2055              1159.4238
 Red. masses --      5.7410                 1.2752                 1.2873
 Frc consts  --      4.4077                 1.0096                 1.0196
 IR Inten    --    445.3257                18.7267                96.5858

                     40                     41                     42
                      A                      A                      A
 Frequencies --   1192.7773              1206.8479              1217.5393
 Red. masses --      4.8398                 1.4673                 1.6825
 Frc consts  --      4.0569                 1.2592                 1.4695
 IR Inten    --    324.2457                76.5639                 0.8289

                     43                     44                     45
                      A                      A                      A
 Frequencies --   1274.2277              1320.7671              1342.6239
 Red. masses --      4.2329                 4.3756                 1.5232
 Frc consts  --      4.0493                 4.4972                 1.6177
 IR Inten    --    477.6021              2713.9562               131.9969

                     46                     47                     48
                      A                      A                      A
 Frequencies --   1371.2508              1400.2953              1417.6270
 Red. masses --      1.5061                 2.2177                 1.6668
 Frc consts  --      1.6685                 2.5621                 1.9736
 IR Inten    --   1052.6048               157.2596                30.1759

                     49                     50                     51
                      A                      A                      A
 Frequencies --   1438.9338              1445.4618              1451.9903
 Red. masses --      2.5080                 2.1254                 1.4449
 Frc consts  --      3.0596                 2.6164                 1.7948
 IR Inten    --    198.4764               154.2510               231.3539

                     52                     53                     54
                      A                      A                      A
 Frequencies --   1459.0725              1462.2070              1474.5495
 Red. masses --      1.0713                 1.1554                 1.1091
 Frc consts  --      1.3437                 1.4554                 1.4209
 IR Inten    --    533.9270               354.2037               140.1458

                     55                     56                     57
                      A                      A                      A
 Frequencies --   1482.2913              1489.6862              1498.6539
 Red. masses --      1.0569                 1.7827                 1.0564
 Frc consts  --      1.3682                 2.3309                 1.3980
 IR Inten    --     15.6185               386.0514                 1.2394

                     58                     59                     60
                      A                      A                      A
 Frequencies --   1511.0166              1511.3725              1563.6533
 Red. masses --      1.0535                 1.0530                 7.9699
 Frc consts  --      1.4171                 1.4172                11.4811
 IR Inten    --     24.7421                76.8039              2151.6829

                     61                     62                     63
                      A                      A                      A
 Frequencies --   2906.7168              2916.3876              2922.2901
 Red. masses --      1.0888                 1.0516                 1.0447
 Frc consts  --      5.4202                 5.2695                 5.2562
 IR Inten    --   1469.5734               123.3470                57.1161

                     64                     65                     66
                      A                      A                      A
 Frequencies --   2923.6393              2931.8292              2941.1827
 Red. masses --      1.0448                 1.0496                 1.0880
 Frc consts  --      5.2618                 5.3154                 5.5453
 IR Inten    --    140.2031               956.6249               197.1772

                     67                     68                     69
                      A                      A                      A
 Frequencies --   2990.9480              2991.2943              3047.0896
 Red. masses --      1.0866                 1.0863                 1.1008
 Frc consts  --      5.7271                 5.7267                 6.0221
 IR Inten    --     21.1410                92.5588                98.3346

                     70                     71                     72
                      A                      A                      A
 Frequencies --   3047.8190              3067.0764              3067.7920
 Red. masses --      1.1008                 1.0907                 1.0904
 Frc consts  --      6.0248                 6.0452                 6.0462
 IR Inten    --     75.7037                15.8033                15.8240

 - Thermochemistry -
 -------------------
 Temperature   298.150 Kelvin.  Pressure   1.00000 Atm.
 Atom     1 has atomic number  6 and mass  12.00000

 Molecular mass:   196.07356 amu.
 Principal axes and moments of inertia in atomic units:
                           1         2         3
     Eigenvalues --  2296.404692464.578824526.33725
           X           -0.55862   0.74418   0.36625
           Y            0.78884   0.61312  -0.04265
           Z            0.25629  -0.26509   0.92954
 This molecule is an asymmetric top.
 Rotational symmetry number  1.
 Warning -- assumption of classical behavior for rotation
           may cause significant error
 Rotational temperatures (Kelvin)      0.03772     0.03514     0.01914
 Rotational constants (GHZ):           0.78590     0.73227     0.39872
 Zero-point vibrational energy     520291.5 (Joules/Mol)
                                  124.35264 (Kcal/Mol)
 Warning -- explicit consideration of  24 degrees of freedom as
           vibrations may cause significant error
 Vibrational temperatures:    105.37   123.33   123.52   134.24   140.51
          (Kelvin)            188.54   204.39   257.99   260.03   274.69
                              351.66   386.89   442.30   466.40   471.28
                              502.29   531.53   566.18   580.03   647.22
                              715.82   772.84   867.38   882.62  1036.29
                             1053.99  1099.96  1263.84  1337.54  1416.48
                             1416.54  1472.87  1499.84  1511.63  1561.64
                             1573.97  1642.41  1667.84  1668.15  1716.14
                             1736.38  1751.77  1833.33  1900.29  1931.74
                             1972.92  2014.71  2039.65  2070.30  2079.70
                             2089.09  2099.28  2103.79  2121.55  2132.69
                             2143.33  2156.23  2174.02  2174.53  2249.75
                             4182.12  4196.03  4204.52  4206.46  4218.25
                             4231.71  4303.31  4303.81  4384.08  4385.13
                             4412.84  4413.87

 Zero-point correction=                           0.198169 (Hartree/Particle)
 Thermal correction to Energy=                    0.213216
 Thermal correction to Enthalpy=                  0.214160
 Thermal correction to Gibbs Free Energy=         0.156581
 Sum of electronic and zero-point Energies=           -689.098181
 Sum of electronic and thermal Energies=              -689.083134
 Sum of electronic and thermal Enthalpies=            -689.082189
 Sum of electronic and thermal Free Energies=         -689.139769

                     E (Thermal)             CV                S
                      KCal/Mol        Cal/Mol-Kelvin    Cal/Mol-Kelvin
 Total                  133.795             54.122            121.186
 Electronic               0.000              0.000              0.000
 Translational            0.889              2.981             41.725
 Rotational               0.889              2.981             31.616
 Vibrational            132.018             48.160             47.845
 Vibration     1          0.599              1.967              4.064
 Vibration     2          0.601              1.959              3.756
 Vibration     3          0.601              1.959              3.752
 Vibration     4          0.602              1.954              3.590
 Vibration     5          0.603              1.951              3.500
 Vibration     6          0.612              1.922              2.931
 Vibration     7          0.616              1.911              2.776
 Vibration     8          0.629              1.868              2.336
 Vibration     9          0.630              1.866              2.321
 Vibration    10          0.634              1.852              2.219
 Vibration    11          0.660              1.772              1.770
 Vibration    12          0.673              1.730              1.603
 Vibration    13          0.697              1.660              1.376
 Vibration    14          0.709              1.627              1.289
 Vibration    15          0.711              1.620              1.272
 Vibration    16          0.726              1.577              1.170
 Vibration    17          0.742              1.535              1.082
 Vibration    18          0.761              1.484              0.987
 Vibration    19          0.769              1.463              0.951
 Vibration    20          0.809              1.361              0.796
 Vibration    21          0.853              1.256              0.664
 Vibration    22          0.892              1.168              0.571
 Vibration    23          0.961              1.026              0.445
 Vibration    24          0.973              1.003              0.427

 Optimization completed.
    -- Stationary point found.
 Normal termination of Gaussian 16 at Thu Dec 21 13:32:59 2023.
