 Gaussian 16, Revision A.03,
 Gaussian 16:  ES64L-G16RevA.03 25-Dec-2016

 ----------------------------------------------------------------------
 #P UB3LYP/6-311++G(d,p) nosym opt freq SCRF=(PCM,Solvent=n,n-DiMethylF
 ormamide)
 ----------------------------------------------------------------------

 --------
 Oxidized
 --------
 Symbolic Z-matrix:
 Charge =  0 Multiplicity = 1

 SCF Done:  E(UB3LYP) =  -5639.44605720     A.U. after   15 cycles
 SCF Done:  E(UB3LYP) =  -5639.44635019     A.U. after   12 cycles
 SCF Done:  E(UB3LYP) =  -5639.44637698     A.U. after   12 cycles
 SCF Done:  E(UB3LYP) =  -5639.44635450     A.U. after   12 cycles
 SCF Done:  E(UB3LYP) =  -5639.44640955     A.U. after   12 cycles
 SCF Done:  E(UB3LYP) =  -5639.44641193     A.U. after   10 cycles
 Optimization completed.
    -- Stationary point found.
 Normal termination of Gaussian 16 at Sat Feb 10 10:09:43 2024.

 ----------------------------------------------------------------------
 #P Geom=AllCheck Guess=TCheck SCRF=Check GenChk UB3LYP/6-311++G(d,p) F
 req
 ----------------------------------------------------------------------

 Structure from the checkpoint file:  "024.chk"
 --------
 Oxidized
 --------
 Charge =  0 Multiplicity = 1

                          Input orientation:
 ---------------------------------------------------------------------
 Center     Atomic      Atomic             Coordinates (Angstroms)
 Number     Number       Type             X           Y           Z
 ---------------------------------------------------------------------
      1          6           0       -1.646167    0.784913    1.629515
      2          6           0       -2.900168    1.061970    0.784953
      3          6           0       -2.859325    0.991363   -0.586610
      4          6           0       -1.664007    0.662984   -1.294267
      5          6           0       -0.409991    0.385957   -0.449703
      6          6           0       -0.450842    0.456566    0.921861
      7          8           0       -1.550207    0.582524   -2.514195
      8          8           0       -1.759957    0.865410    2.849437
      9         35           0        1.123099    0.109149    1.950879
     10         35           0       -4.433265    1.338811   -1.615620
     11          7           0        0.656254    0.087132   -1.182072
     12          7           0       -3.966403    1.360814    1.517330
     13          1           0        0.551870    0.069664   -2.188462
     14          1           0        1.551138   -0.117305   -0.762894
     15          1           0       -3.862011    1.378265    2.523719
     16          1           0       -4.861286    1.565273    1.098160
 ---------------------------------------------------------------------

 SCF Done:  E(UB3LYP) =  -5639.44641193     A.U. after    1 cycles

 Alpha  occ. eigenvalues -- -482.84633-482.84633 -62.49901 -62.49900 -56.31941
 Alpha  occ. eigenvalues --  -56.31941 -56.31547 -56.31547 -56.31539 -56.31538
 Alpha  occ. eigenvalues --  -19.13639 -19.13639 -14.37146 -14.37145 -10.29510
 Alpha  occ. eigenvalues --  -10.29509 -10.27627 -10.27626 -10.23832 -10.23831
 Alpha  occ. eigenvalues --   -8.70866  -8.70866  -6.54013  -6.54013  -6.52702
 Alpha  occ. eigenvalues --   -6.52702  -6.52691  -6.52691  -2.65103  -2.65103
 Alpha  occ. eigenvalues --   -2.64723  -2.64723  -2.64720  -2.64719  -2.63677
 Alpha  occ. eigenvalues --   -2.63677  -2.63676  -2.63675  -1.07505  -1.07206
 Alpha  occ. eigenvalues --   -0.97541  -0.97417  -0.86552  -0.83695  -0.79468
 Alpha  occ. eigenvalues --   -0.73836  -0.71130  -0.64685  -0.62845  -0.60587
 Alpha  occ. eigenvalues --   -0.55136  -0.54052  -0.52923  -0.49014  -0.47509
 Alpha  occ. eigenvalues --   -0.46282  -0.46019  -0.43666  -0.43179  -0.40657
 Alpha  occ. eigenvalues --   -0.40267  -0.37104  -0.32961  -0.32352  -0.31378
 Alpha  occ. eigenvalues --   -0.31226  -0.30252  -0.29144  -0.26475  -0.23410
 Alpha virt. eigenvalues --   -0.12444  -0.02825  -0.02744  -0.01069  -0.00311
 Alpha virt. eigenvalues --    0.00273   0.00402   0.01517   0.02638   0.03434
 Alpha virt. eigenvalues --    0.03642   0.04476   0.04942   0.05708   0.06742

  Beta  occ. eigenvalues -- -482.84633-482.84633 -62.49901 -62.49900 -56.31941
  Beta  occ. eigenvalues --  -56.31941 -56.31547 -56.31547 -56.31539 -56.31538
  Beta  occ. eigenvalues --  -19.13639 -19.13639 -14.37146 -14.37145 -10.29510
  Beta  occ. eigenvalues --  -10.29509 -10.27627 -10.27626 -10.23832 -10.23831
  Beta  occ. eigenvalues --   -8.70866  -8.70866  -6.54013  -6.54013  -6.52702
  Beta  occ. eigenvalues --   -6.52702  -6.52691  -6.52691  -2.65103  -2.65103
  Beta  occ. eigenvalues --   -2.64723  -2.64723  -2.64720  -2.64719  -2.63677
  Beta  occ. eigenvalues --   -2.63677  -2.63676  -2.63675  -1.07505  -1.07206
  Beta  occ. eigenvalues --   -0.97541  -0.97417  -0.86552  -0.83695  -0.79468
  Beta  occ. eigenvalues --   -0.73836  -0.71130  -0.64685  -0.62845  -0.60587
  Beta  occ. eigenvalues --   -0.55136  -0.54052  -0.52923  -0.49014  -0.47509
  Beta  occ. eigenvalues --   -0.46282  -0.46019  -0.43666  -0.43179  -0.40657
  Beta  occ. eigenvalues --   -0.40267  -0.37104  -0.32961  -0.32352  -0.31378
  Beta  occ. eigenvalues --   -0.31226  -0.30252  -0.29144  -0.26475  -0.23410
  Beta virt. eigenvalues --   -0.12444  -0.02825  -0.02744  -0.01069  -0.00311
  Beta virt. eigenvalues --    0.00273   0.00402   0.01517   0.02638   0.03434
  Beta virt. eigenvalues --    0.03642   0.04476   0.04942   0.05708   0.06742

 Mulliken charges and spin densities:
               1          2
     1  C   -0.603428   0.000000
     2  C   -0.908294   0.000000
     3  C    1.526884  -0.000000
     4  C   -0.603450  -0.000000
     5  C   -0.908287  -0.000000
     6  C    1.526858   0.000000
     7  O   -0.322249   0.000000
     8  O   -0.322248  -0.000000
     9  Br  -0.081394   0.000000
    10  Br  -0.081393   0.000000
    11  N   -0.245844   0.000000
    12  N   -0.245847   0.000000
    13  H    0.330610  -0.000000
    14  H    0.303736  -0.000000
    15  H    0.330610  -0.000000
    16  H    0.303736  -0.000000
 Sum of Mulliken charges =  -0.00000   0.00000

 Dipole moment (field-independent basis, Debye):
    X=              0.0000    Y=             -0.0000    Z=              0.0000  Tot=              0.0000
 Quadrupole moment (field-independent basis, Debye-Ang):
   XX=            -73.7779   YY=            -94.1855   ZZ=           -110.8609
   XY=             -6.1700   XZ=            -15.1758   YZ=              3.1545

  Exact polarizability: 220.086 -31.130 105.699 -12.320  10.581 269.353
 Approx polarizability: 240.364 -33.891 121.881 -45.356  22.209 362.033

                      1                      2                      3
                      A                      A                      A
 Frequencies --     54.4567                79.9639               107.2120
 Red. masses --     15.6945                 7.2647                 8.2539
 Frc consts  --      0.0274                 0.0274                 0.0559
 IR Inten    --      0.0650                22.6803                 0.0000

                      4                      5                      6
                      A                      A                      A
 Frequencies --    146.5149               176.2351               188.3269
 Red. masses --     16.1845                 7.0458                10.8143
 Frc consts  --      0.2047                 0.1289                 0.2260
 IR Inten    --      0.5958                 2.9546                 0.0000

                      7                      8                      9
                      A                      A                      A
 Frequencies --    197.7352               247.2971               280.7161
 Red. masses --     20.5333                10.4540                 6.2429
 Frc consts  --      0.4730                 0.3767                 0.2898
 IR Inten    --      0.0000                 0.0000                11.3961

                     10                     11                     12
                      A                      A                      A
 Frequencies --    371.1619               380.1409               393.3773
 Red. masses --      4.4371                 4.6252                 8.0603
 Frc consts  --      0.3601                 0.3938                 0.7349
 IR Inten    --      0.0000                40.5896                 0.0000

                     13                     14                     15
                      A                      A                      A
 Frequencies --    404.8605               410.8580               497.3027
 Red. masses --      1.1662                 1.2036                 8.0746
 Frc consts  --      0.1126                 0.1197                 1.1766
 IR Inten    --      0.0000               510.4952                60.1501

                     16                     17                     18
                      A                      A                      A
 Frequencies --    508.2004               531.1703               550.8558
 Red. masses --      4.4358                 9.1362                 3.2184
 Frc consts  --      0.6750                 1.5187                 0.5754
 IR Inten    --      0.0000                 0.0000                98.9954

                     19                     20                     21
                      A                      A                      A
 Frequencies --    648.1052               649.5206               707.6645
 Red. masses --      1.3301                 1.2179                 3.7915
 Frc consts  --      0.3292                 0.3027                 1.1187
 IR Inten    --      0.2998                 0.0000                 0.0000

                     22                     23                     24
                      A                      A                      A
 Frequencies --    764.6717               768.7475               770.9808
 Red. masses --     11.1185                 6.3421                10.3928
 Frc consts  --      3.8304                 2.2083                 3.6397
 IR Inten    --     11.0403                66.5720                 0.0000

                     25                     26                     27
                      A                      A                      A
 Frequencies --    815.1429               913.3186              1101.6916
 Red. masses --     10.8470                 3.5248                 1.8839
 Frc consts  --      4.2465                 1.7323                 1.3472
 IR Inten    --      0.0000               220.9177                 0.0000

                     28                     29                     30
                      A                      A                      A
 Frequencies --   1121.9356              1304.8515              1315.0282
 Red. masses --      2.5505                 5.2257                 7.7007
 Frc consts  --      1.8915                 5.2423                 7.8461
 IR Inten    --     57.1263               335.6911                 0.0000

                     31                     32                     33
                      A                      A                      A
 Frequencies --   1372.0042              1376.8364              1551.8940
 Red. masses --      3.6434                 4.7934                 2.1478
 Frc consts  --      4.0408                 5.3538                 3.0477
 IR Inten    --      0.0000               297.8977                 0.0000

                     34                     35                     36
                      A                      A                      A
 Frequencies --   1568.1252              1579.5086              1632.3965
 Red. masses --      1.4928                 5.8067                 2.3952
 Frc consts  --      2.1628                 8.5354                 3.7605
 IR Inten    --     20.4209              4458.0131                 0.0000

                     37                     38                     39
                      A                      A                      A
 Frequencies --   1669.6649              1705.9727              3544.5114
 Red. masses --     12.3225                 6.4637                 1.0456
 Frc consts  --     20.2399                11.0834                 7.7399
 IR Inten    --      0.0000                62.4920                 0.0009

                     40                     41                     42
                      A                      A                      A
 Frequencies --   3546.0293              3674.2854              3674.4862
 Red. masses --      1.0458                 1.1052                 1.1050
 Frc consts  --      7.7481                 8.7907                 8.7907
 IR Inten    --    552.4642               334.5945                 0.0031

 - Thermochemistry -
 -------------------
 Temperature   298.150 Kelvin.  Pressure   1.00000 Atm.
 Atom     1 has atomic number  6 and mass  12.00000

 Molecular mass:   293.86395 amu.
 Principal axes and moments of inertia in atomic units:
                           1         2         3
     Eigenvalues --  1592.515607046.903328639.41766
           X            0.82947  -0.50352   0.24176
           Y           -0.18387   0.16256   0.96941
           Z            0.52742   0.84855  -0.04226
 This molecule is an asymmetric top.
 Rotational symmetry number  1.
 Warning -- assumption of classical behavior for rotation
           may cause significant error
 Rotational temperatures (Kelvin)      0.05439     0.01229     0.01003
 Rotational constants (GHZ):           1.13326     0.25610     0.20890
 Zero-point vibrational energy     259014.0 (Joules/Mol)
                                   61.90583 (Kcal/Mol)
 Warning -- explicit consideration of  18 degrees of freedom as
           vibrations may cause significant error
 Vibrational temperatures:     78.35   115.05   154.25   210.80   253.56
          (Kelvin)            270.96   284.50   355.81   403.89   534.02
                              546.94   565.98   582.50   591.13   715.51
                              731.19   764.24   792.56   932.48   934.52
                             1018.17  1100.19  1106.06  1109.27  1172.81
                             1314.06  1585.09  1614.22  1877.39  1892.03
                             1974.01  1980.96  2232.83  2256.18  2272.56
                             2348.65  2402.28  2454.51  5099.76  5101.95
                             5286.48  5286.77

 Zero-point correction=                           0.098653 (Hartree/Particle)
 Thermal correction to Energy=                    0.110429
 Thermal correction to Enthalpy=                  0.111373
 Thermal correction to Gibbs Free Energy=         0.059004
 Sum of electronic and zero-point Energies=          -5639.347759
 Sum of electronic and thermal Energies=             -5639.335983
 Sum of electronic and thermal Enthalpies=           -5639.335039
 Sum of electronic and thermal Free Energies=        -5639.387408

                     E (Thermal)             CV                S
                      KCal/Mol        Cal/Mol-Kelvin    Cal/Mol-Kelvin
 Total                   69.295             42.295            110.221
 Electronic               0.000              0.000              0.000
 Translational            0.889              2.981             42.931
 Rotational               0.889              2.981             32.939
 Vibrational             67.518             36.333             34.351
 Vibration     1          0.596              1.976              4.649
 Vibration     2          0.600              1.963              3.892
 Vibration     3          0.606              1.943              3.319
 Vibration     4          0.617              1.906              2.717
 Vibration     5          0.628              1.872              2.368
 Vibration     6          0.633              1.856              2.244
 Vibration     7          0.637              1.843              2.154
 Vibration     8          0.661              1.767              1.750
 Vibration     9          0.680              1.709              1.529
 Vibration    10          0.743              1.531              1.075
 Vibration    11          0.750              1.513              1.039
 Vibration    12          0.761              1.484              0.987
 Vibration    13          0.770              1.460              0.945
 Vibration    14          0.775              1.447              0.924
 Vibration    15          0.853              1.256              0.665
 Vibration    16          0.863              1.232              0.638
 Vibration    17          0.886              1.181              0.585
 Vibration    18          0.906              1.138              0.542

 Optimization completed.
    -- Stationary point found.
 Normal termination of Gaussian 16 at Sat Feb 10 10:18:38 2024.
