 Q-Chem 5.4, Q-Chem, Inc., Pleasanton, CA (2021)
 Q-Chem 5.4.0 for Intel X86 EM64T Linux

User input:
--------------------------------------------------------------
$molecule
0 1
O                 -0.0181840000     -2.3786060000     -0.6984580000
C                 -0.0199320000     -1.2495210000     -0.2421530000
C                  1.2717800000     -0.5681050000      0.0936640000
C                  2.4321050000     -1.3497400000      0.1558760000
C                  3.6470730000     -0.7865320000      0.5273290000
C                  3.7237310000      0.5686200000      0.8512440000
C                  2.5844380000      1.3668690000      0.7922170000
C                  1.3758860000      0.7920060000      0.4139010000
S                 -0.0208250000      1.8977530000      0.1862830000
O                 -0.0141180000      2.3605310000     -1.2050800000
C                 -1.4204020000      0.7929990000      0.4007510000
C                 -2.6320480000      1.3687260000      0.7676820000
C                 -3.7724180000      0.5712940000      0.8159800000
C                 -3.6936850000     -0.7839130000      0.4927920000
C                 -2.4756790000     -1.3479900000      0.1327850000
C                 -1.3142610000     -0.5671870000      0.0814990000
H                  2.3507770000     -2.4023530000     -0.0846990000
H                  4.5356810000     -1.4051700000      0.5723380000
H                  4.6690330000      1.0053050000      1.1515470000
H                  2.6256720000      2.4203000000      1.0406710000
H                 -2.6748640000      2.4221870000      1.0157420000
H                 -4.7201910000      1.0086550000      1.1073770000
H                 -4.5831210000     -1.4019140000      0.5294300000
H                 -2.3928480000     -2.4006620000     -0.1070220000
O                 -0.0255480000      2.8902340000      1.2653860000
$end
$rem
MAX_SCF_CYCLES=200
BASIS  =  6-311++G(d,p)
GUI  =  2
JOB_TYPE  =  SP
METHOD  =  B3LYP
SOLVENT_METHOD = COSMO
$end
$solvent
dielectric 37.219
opticaldielectric 1.43
$end

--------------------------------------------------------------

             Standard Nuclear Orientation (Angstroms)
    I     Atom           X                Y                Z
 ----------------------------------------------------------------
    1      O      -0.0000034701     2.8452076474    -0.5982536365
    2      C       0.0000003513     1.6650991501    -0.2975973870
    3      C      -1.2930341881     0.9451393976    -0.0623520936
    4      C      -2.4539175755     1.7116775539     0.0987277865
    5      C      -3.6704187531     1.1040527703     0.3855113821
    6      C      -3.7481166560    -0.2822890596     0.5242690337
    7      C      -2.6082740957    -1.0657125086     0.3640166392
    8      C      -1.3981607150    -0.4456153489     0.0719660960
    9      S      -0.0000002846    -1.5112016899    -0.2954045071
   10      O       0.0000032974    -1.7830691670    -1.7363026762
   11      C       1.3981583811    -0.4456122512     0.0719715896
   12      C       2.6082699329    -1.0657107569     0.3640226845
   13      C       3.7481157664    -0.2822910332     0.5242701203
   14      C       3.6704209590     1.1040509482     0.3855084215
   15      C       2.4539210575     1.7116773993     0.0987252216
   16      C       1.2930355873     0.9451430971    -0.0623506547
   17      H      -2.3718339435     2.7870315104     0.0019763130
   18      H      -4.5594491307     1.7113014823     0.5089494319
   19      H      -4.6946652179    -0.7550619457     0.7587965807
   20      H      -2.6503009483    -2.1429455856     0.4686548064
   21      H       2.6502940091    -2.1429440611     0.4686622437
   22      H       4.6946632742    -0.7550650611     0.7587974094
   23      H       4.5594544006     1.7112973574     0.5089398413
   24      H       2.3718438824     2.7870324071     0.0019695718
   25      O      -0.0000000880    -2.6395228822     0.6407554223
 ----------------------------------------------------------------

    9   -1124.2101736836      6.94e-06  Convergence criterion met
 Total energy in the final basis set =    -1124.2101736836
    5   -1124.2316238914      3.42e-06  Convergence criterion met
 Total energy in the final basis set =    -1124.2316238914

                    Orbital Energies (a.u.)
 --------------------------------------------------------------

 Alpha MOs
 -- Occupied --
-89.0775 -19.1440 -19.1430 -19.1408 -10.2973 -10.2390 -10.2390 -10.2239
-10.2239 -10.2109 -10.2109 -10.2055 -10.2055 -10.2055 -10.2055 -10.2017
-10.2017  -8.1420  -6.1045  -6.1035  -6.1033  -1.1401  -1.0779  -1.0340
 -0.9073  -0.8957  -0.8220  -0.7961  -0.7900  -0.7831  -0.7179  -0.6815
 -0.6566  -0.6307  -0.6151  -0.5802  -0.5787  -0.5326  -0.5091  -0.5016
 -0.4984  -0.4953  -0.4868  -0.4663  -0.4612  -0.4591  -0.4589  -0.4477
 -0.4083  -0.4082  -0.3941  -0.3927  -0.3862  -0.3850  -0.3593  -0.3573
 -0.3440  -0.3244  -0.2958  -0.2932  -0.2882  -0.2860  -0.2842

          Ground-State Mulliken Net Atomic Charges

     Atom                 Charge (a.u.)
  ----------------------------------------
      1 O                    -0.269657
      2 C                    -0.630685
      3 C                     2.118864
      4 C                     0.224085
      5 C                    -0.612727
      6 C                    -0.080639
      7 C                    -0.311027
      8 C                    -1.988112
      9 S                     0.629474
     10 O                    -0.082281
     11 C                    -1.987547
     12 C                    -0.311167
     13 C                    -0.081138
     14 C                    -0.612919
     15 C                     0.224347
     16 C                     2.118222
     17 H                     0.224143
     18 H                     0.232888
     19 H                     0.240472
     20 H                     0.252631
     21 H                     0.253008
     22 H                     0.240426
     23 H                     0.232923
     24 H                     0.224140
     25 O                    -0.247724
  ----------------------------------------
  Sum of atomic charges =     0.000000

                    Cartesian Multipole Moments
 -----------------------------------------------------------------
    Charge (ESU x 10^10)
                -0.0000
    Dipole Moment (Debye)
         X       0.0001      Y       2.7642      Z       3.8084
       Tot       4.7058
    Quadrupole Moments (Debye-Ang)
        XX     -61.3802     XY       0.0015     YY    -118.1515
        XZ      -0.0010     YZ       0.2465     ZZ    -115.1976

 Total job time:  59.51s(wall), 446.53s(cpu)
        *  Thank you very much for using Q-Chem.  Have a nice day.  *
