 Gaussian 16, Revision A.03,
 Gaussian 16:  ES64L-G16RevA.03 25-Dec-2016

 ----------------------------------------------------------------
 #P UB3LYP/6-311++G(d,p) SCRF=(PCM,Solvent=n,n-DiMethylFormamide)
 ----------------------------------------------------------------

 -------
 Reduced
 -------
 Symbolic Z-matrix:
 Charge = -2 Multiplicity = 1

                         Standard orientation:
 ---------------------------------------------------------------------
 Center     Atomic      Atomic             Coordinates (Angstroms)
 Number     Number       Type             X           Y           Z
 ---------------------------------------------------------------------
      1          7           0        4.692353   -0.814244   -0.090140
      2          6           0        3.375203   -0.268804   -0.020825
      3          6           0        3.220880    1.147220   -0.006988
      4          6           0        1.956627    1.698755    0.013066
      5          6           0        0.781528    0.911521   -0.001062
      6          6           0       -0.515346    1.566850   -0.002570
      7          8           0       -0.647138    2.839116    0.001163
      8          6           0       -1.651233    0.663116    0.000105
      9          6           0       -2.962647    1.196595   -0.001134
     10          6           0       -4.086265    0.393460   -0.000262
     11          6           0       -3.934096   -1.021919   -0.000165
     12          6           0       -2.669506   -1.573638    0.001856
     13          6           0       -1.494774   -0.777486    0.004146
     14          6           0       -0.199381   -1.427270    0.004288
     15          8           0       -0.067279   -2.703344    0.004456
     16          6           0        0.934164   -0.523522   -0.002994
     17          6           0        2.248634   -1.063316   -0.003157
     18          1           0        5.349049   -0.327346    0.523626
     19          1           0        4.703861   -1.800444    0.152974
     20          1           0        4.104583    1.781147   -0.032797
     21          1           0        1.819602    2.775605    0.023579
     22          1           0       -3.043060    2.279497   -0.001859
     23          1           0       -5.080262    0.837212   -0.001276
     24          1           0       -4.812760   -1.664958   -0.000956
     25          1           0       -2.522109   -2.649305    0.002723
     26          1           0        2.327227   -2.147235    0.014163
 ---------------------------------------------------------------------

 SCF Done:  E(UB3LYP) =  -744.565159838     A.U. after   17 cycles

 The electronic state is 1-A.
 Alpha  occ. eigenvalues --  -19.01933 -19.01353 -14.30355 -10.18651 -10.17242
 Alpha  occ. eigenvalues --  -10.16559 -10.14781 -10.14668 -10.14619 -10.14464
 Alpha  occ. eigenvalues --  -10.14331 -10.14189 -10.13576 -10.13298 -10.13077
 Alpha  occ. eigenvalues --  -10.13070 -10.13010  -0.93995  -0.93259  -0.89583
 Alpha  occ. eigenvalues --   -0.82108  -0.80950  -0.74327  -0.71918  -0.71746
 Alpha  occ. eigenvalues --   -0.69676  -0.62927  -0.60784  -0.58183  -0.56123
 Alpha  occ. eigenvalues --   -0.52370  -0.50782  -0.49832  -0.47715  -0.44965
 Alpha  occ. eigenvalues --   -0.43489  -0.42541  -0.41321  -0.39883  -0.39506
 Alpha  occ. eigenvalues --   -0.38165  -0.37491  -0.36806  -0.36233  -0.35563
 Alpha  occ. eigenvalues --   -0.34883  -0.32359  -0.31943  -0.31582  -0.31242
 Alpha  occ. eigenvalues --   -0.29628  -0.27501  -0.23035  -0.22172  -0.21835
 Alpha  occ. eigenvalues --   -0.19969  -0.19473  -0.19100  -0.09904
 Alpha virt. eigenvalues --   -0.02335  -0.00142   0.00488   0.00905   0.01451
 Alpha virt. eigenvalues --    0.02146   0.02315   0.02509   0.04196   0.04518
 Alpha virt. eigenvalues --    0.04925   0.05086   0.05975   0.06616   0.06754

  Beta  occ. eigenvalues --  -19.01933 -19.01353 -14.30355 -10.18651 -10.17242
  Beta  occ. eigenvalues --  -10.16559 -10.14781 -10.14668 -10.14619 -10.14464
  Beta  occ. eigenvalues --  -10.14331 -10.14189 -10.13576 -10.13298 -10.13077
  Beta  occ. eigenvalues --  -10.13070 -10.13010  -0.93995  -0.93259  -0.89583
  Beta  occ. eigenvalues --   -0.82108  -0.80950  -0.74327  -0.71918  -0.71746
  Beta  occ. eigenvalues --   -0.69676  -0.62927  -0.60784  -0.58183  -0.56123
  Beta  occ. eigenvalues --   -0.52370  -0.50782  -0.49832  -0.47715  -0.44965
  Beta  occ. eigenvalues --   -0.43489  -0.42541  -0.41321  -0.39883  -0.39506
  Beta  occ. eigenvalues --   -0.38165  -0.37491  -0.36806  -0.36233  -0.35563
  Beta  occ. eigenvalues --   -0.34883  -0.32359  -0.31943  -0.31582  -0.31242
  Beta  occ. eigenvalues --   -0.29628  -0.27501  -0.23035  -0.22172  -0.21835
  Beta  occ. eigenvalues --   -0.19969  -0.19473  -0.19100  -0.09904
  Beta virt. eigenvalues --   -0.02335  -0.00142   0.00488   0.00905   0.01451
  Beta virt. eigenvalues --    0.02146   0.02315   0.02509   0.04196   0.04518
  Beta virt. eigenvalues --    0.04925   0.05086   0.05975   0.06616   0.06754

 Mulliken charges and spin densities:
               1          2
     1  N   -0.406376  -0.000000
     2  C   -0.464566   0.000000
     3  C   -0.275565  -0.000000
     4  C    0.012481  -0.000000
     5  C    0.223177   0.000000
     6  C   -0.448670   0.000000
     7  O   -0.646682   0.000000
     8  C    0.243942   0.000000
     9  C   -0.012893  -0.000000
    10  C   -0.521098   0.000000
    11  C   -0.503877   0.000000
    12  C   -0.014224  -0.000000
    13  C    0.284790   0.000000
    14  C   -0.742582   0.000000
    15  O   -0.665359  -0.000000
    16  C    0.436011  -0.000000
    17  C   -0.061955  -0.000000
    18  H    0.252717   0.000000
    19  H    0.263713  -0.000000
    20  H    0.175864  -0.000000
    21  H    0.144439  -0.000000
    22  H    0.141206   0.000000
    23  H    0.152363  -0.000000
    24  H    0.154014  -0.000000
    25  H    0.142324  -0.000000
    26  H    0.136804   0.000000
 Sum of Mulliken charges =  -2.00000  -0.00000

 Dipole moment (field-independent basis, Debye):
    X=              4.8177    Y=             -0.5102    Z=              1.5028  Tot=              5.0724
 Quadrupole moment (field-independent basis, Debye-Ang):
   XX=           -123.9140   YY=           -158.9792   ZZ=           -112.8176
   XY=              2.3677   XZ=              8.2389   YZ=             -1.1005

 Normal termination of Gaussian 16 at Sun Jan 14 01:30:07 2024.
