 Gaussian 16, Revision A.03,
 Gaussian 16:  ES64L-G16RevA.03 25-Dec-2016

 ----------------------------------------------------------------------
 #P UB3LYP/6-311++G(d,p) nosym opt freq SCRF=(PCM,Solvent=n,n-DiMethylF
 ormamide)
 ----------------------------------------------------------------------

 --------
 Oxidized
 --------
 Symbolic Z-matrix:
 Charge =  0 Multiplicity = 1

 SCF Done:  E(UB3LYP) =  -839.466325413     A.U. after   14 cycles
 SCF Done:  E(UB3LYP) =  -839.466453794     A.U. after   11 cycles
 SCF Done:  E(UB3LYP) =  -839.466478127     A.U. after   12 cycles
 SCF Done:  E(UB3LYP) =  -839.466498658     A.U. after   10 cycles
 SCF Done:  E(UB3LYP) =  -839.466499391     A.U. after    9 cycles
 SCF Done:  E(UB3LYP) =  -839.466499535     A.U. after    9 cycles
 Optimization completed.
    -- Stationary point found.
 Normal termination of Gaussian 16 at Sat Feb 10 22:18:01 2024.

 ----------------------------------------------------------------------
 #P Geom=AllCheck Guess=TCheck SCRF=Check GenChk UB3LYP/6-311++G(d,p) F
 req
 ----------------------------------------------------------------------

 Structure from the checkpoint file:  "187.chk"
 --------
 Oxidized
 --------
 Charge =  0 Multiplicity = 1

                          Input orientation:
 ---------------------------------------------------------------------
 Center     Atomic      Atomic             Coordinates (Angstroms)
 Number     Number       Type             X           Y           Z
 ---------------------------------------------------------------------
      1          8           0       -2.296727   -2.667600   -0.429661
      2          6           0       -2.353178   -1.335666   -0.202162
      3          6           0       -3.598605   -0.702790   -0.079868
      4          6           0       -3.683945    0.659665    0.152953
      5          6           0       -2.523755    1.421818    0.269379
      6          6           0       -1.278914    0.812833    0.151479
      7          6           0       -0.072538    1.682978    0.286222
      8          8           0       -0.186433    2.884865    0.492735
      9          6           0        1.264495    1.048055    0.164040
     10          6           0        2.400834    1.838643    0.288459
     11          6           0        3.666594    1.256476    0.176766
     12          6           0        3.799479   -0.101890   -0.057282
     13          6           0        2.661875   -0.913239   -0.185490
     14          8           0        2.852053   -2.223436   -0.411908
     15          6           0        1.369915   -0.341009   -0.074619
     16          6           0        0.177513   -1.196639   -0.208260
     17          8           0        0.319239   -2.413327   -0.418259
     18          6           0       -1.160855   -0.580477   -0.087249
     19          1           0       -3.194379   -3.021738   -0.478410
     20          1           0       -4.500568   -1.299278   -0.170848
     21          1           0       -4.656656    1.127990    0.243757
     22          1           0       -2.570920    2.486726    0.451209
     23          1           0        2.289072    2.898899    0.471266
     24          1           0        4.553617    1.871316    0.273936
     25          1           0        4.774528   -0.565570   -0.145860
     26          1           0        1.948260   -2.627605   -0.472323
 ---------------------------------------------------------------------

 SCF Done:  E(UB3LYP) =  -839.466499535     A.U. after    1 cycles

 Alpha  occ. eigenvalues --  -19.17799 -19.16104 -19.13730 -19.13138 -10.29202
 Alpha  occ. eigenvalues --  -10.28491 -10.27441 -10.26745 -10.21577 -10.21457
 Alpha  occ. eigenvalues --  -10.21143 -10.21011 -10.20507 -10.20250 -10.20219
 Alpha  occ. eigenvalues --  -10.19616 -10.19552 -10.19451  -1.09647  -1.08923
 Alpha  occ. eigenvalues --   -1.06491  -1.05825  -0.89566  -0.88120  -0.81843
 Alpha  occ. eigenvalues --   -0.78059  -0.77656  -0.77024  -0.69713  -0.67752
 Alpha  occ. eigenvalues --   -0.66264  -0.63181  -0.60729  -0.58615  -0.56408
 Alpha  occ. eigenvalues --   -0.54087  -0.52870  -0.51345  -0.49924  -0.49180
 Alpha  occ. eigenvalues --   -0.48065  -0.46896  -0.46316  -0.45614  -0.45340
 Alpha  occ. eigenvalues --   -0.43893  -0.42828  -0.41775  -0.41429  -0.40551
 Alpha  occ. eigenvalues --   -0.40188  -0.38582  -0.38283  -0.37789  -0.36543
 Alpha  occ. eigenvalues --   -0.35559  -0.29563  -0.29143  -0.28201  -0.27711
 Alpha  occ. eigenvalues --   -0.25824  -0.25048
 Alpha virt. eigenvalues --   -0.12285  -0.06944  -0.04225  -0.01718  -0.00817
 Alpha virt. eigenvalues --    0.00005   0.00614   0.01484   0.01820   0.02764
 Alpha virt. eigenvalues --    0.03547   0.03770   0.03904   0.04156   0.04295

  Beta  occ. eigenvalues --  -19.17799 -19.16104 -19.13730 -19.13138 -10.29202
  Beta  occ. eigenvalues --  -10.28491 -10.27441 -10.26745 -10.21577 -10.21457
  Beta  occ. eigenvalues --  -10.21143 -10.21011 -10.20507 -10.20250 -10.20219
  Beta  occ. eigenvalues --  -10.19616 -10.19552 -10.19451  -1.09647  -1.08923
  Beta  occ. eigenvalues --   -1.06491  -1.05825  -0.89566  -0.88120  -0.81843
  Beta  occ. eigenvalues --   -0.78059  -0.77656  -0.77024  -0.69713  -0.67752
  Beta  occ. eigenvalues --   -0.66264  -0.63181  -0.60729  -0.58615  -0.56408
  Beta  occ. eigenvalues --   -0.54087  -0.52870  -0.51345  -0.49924  -0.49180
  Beta  occ. eigenvalues --   -0.48065  -0.46896  -0.46316  -0.45614  -0.45340
  Beta  occ. eigenvalues --   -0.43893  -0.42828  -0.41775  -0.41429  -0.40551
  Beta  occ. eigenvalues --   -0.40188  -0.38582  -0.38283  -0.37789  -0.36543
  Beta  occ. eigenvalues --   -0.35559  -0.29563  -0.29143  -0.28201  -0.27711
  Beta  occ. eigenvalues --   -0.25824  -0.25048
  Beta virt. eigenvalues --   -0.12285  -0.06944  -0.04225  -0.01718  -0.00817
  Beta virt. eigenvalues --    0.00005   0.00614   0.01484   0.01820   0.02764
  Beta virt. eigenvalues --    0.03547   0.03770   0.03904   0.04156   0.04295

 Mulliken charges and spin densities:
               1          2
     1  O   -0.212188  -0.000000
     2  C    0.098861   0.000000
     3  C   -0.175268   0.000000
     4  C   -0.300809   0.000000
     5  C    0.060679  -0.000000
     6  C    0.325303   0.000000
     7  C   -0.483498   0.000000
     8  O   -0.273566  -0.000000
     9  C    0.280286   0.000000
    10  C    0.021146  -0.000000
    11  C   -0.378817   0.000000
    12  C   -0.193357   0.000000
    13  C   -0.049152  -0.000000
    14  O   -0.332557  -0.000000
    15  C    0.420028  -0.000000
    16  C   -0.339933  -0.000000
    17  O   -0.325825   0.000000
    18  C   -0.012342   0.000000
    19  H    0.311623  -0.000000
    20  H    0.182812   0.000000
    21  H    0.223194   0.000000
    22  H    0.176197  -0.000000
    23  H    0.179969  -0.000000
    24  H    0.216990   0.000000
    25  H    0.214122   0.000000
    26  H    0.366105  -0.000000
 Sum of Mulliken charges =  -0.00000  -0.00000

 Dipole moment (field-independent basis, Debye):
    X=             -4.4296    Y=              0.0115    Z=              0.0607  Tot=              4.4300
 Quadrupole moment (field-independent basis, Debye-Ang):
   XX=            -67.4012   YY=           -115.1040   ZZ=           -105.5060
   XY=             15.8709   XZ=              2.2956   YZ=             -1.8779

  Exact polarizability: 381.379   7.078 294.651  -1.678  30.876 118.836
 Approx polarizability: 413.169   0.927 382.893  -2.825  42.421 141.801

                      1                      2                      3
                      A                      A                      A
 Frequencies --     30.1380                60.5069               100.3396
 Red. masses --      7.2168                 6.4908                 9.8520
 Frc consts  --      0.0039                 0.0140                 0.0584
 IR Inten    --     12.5820                 0.0663                 0.3557

                      4                      5                      6
                      A                      A                      A
 Frequencies --    160.2997               196.1090               199.8373
 Red. masses --      6.5992                 4.5497                 6.3124
 Frc consts  --      0.0999                 0.1031                 0.1485
 IR Inten    --      0.0860                 0.7093                 1.8551

                      7                      8                      9
                      A                      A                      A
 Frequencies --    233.0294               270.6585               312.4067
 Red. masses --      4.8652                 5.2978                 7.0379
 Frc consts  --      0.1557                 0.2287                 0.4047
 IR Inten    --      0.4853                 5.2865                 7.4242

                     10                     11                     12
                      A                      A                      A
 Frequencies --    339.5394               371.1962               418.4865
 Red. masses --      6.6606                11.4870                 1.1669
 Frc consts  --      0.4524                 0.9325                 0.1204
 IR Inten    --      2.0320                11.7215               143.2410

                     13                     14                     15
                      A                      A                      A
 Frequencies --    430.9474               435.6568               447.6389
 Red. masses --      5.0055                12.4157                 7.2830
 Frc consts  --      0.5477                 1.3884                 0.8598
 IR Inten    --      1.7268                47.0565                12.7716

                     16                     17                     18
                      A                      A                      A
 Frequencies --    463.9926               483.1733               487.0957
 Red. masses --      6.3550                 3.8619                 7.1720
 Frc consts  --      0.8061                 0.5312                 1.0026
 IR Inten    --     25.4574                 1.3061                 4.7969

                     19                     20                     21
                      A                      A                      A
 Frequencies --    529.0147               553.2172               578.6542
 Red. masses --      4.5970                 8.1614                 4.8967
 Frc consts  --      0.7580                 1.4716                 0.9660
 IR Inten    --      7.0815                 0.4275                 0.6890

                     22                     23                     24
                      A                      A                      A
 Frequencies --    579.6521               632.7770               669.2444
 Red. masses --      5.5826                 6.7530                 3.9846
 Frc consts  --      1.1052                 1.5931                 1.0515
 IR Inten    --      4.9101                 8.0195                12.7420

                     25                     26                     27
                      A                      A                      A
 Frequencies --    708.1561               717.4243               759.0319
 Red. masses --      6.9971                 3.0265                 2.5995
 Frc consts  --      2.0674                 0.9178                 0.8824
 IR Inten    --     11.6128                 0.3424               122.8856

                     28                     29                     30
                      A                      A                      A
 Frequencies --    786.4273               789.2179               796.1778
 Red. masses --      1.8022                 6.4128                 1.8453
 Frc consts  --      0.6567                 2.3534                 0.6892
 IR Inten    --     91.4813                 3.7922                58.9263

                     31                     32                     33
                      A                      A                      A
 Frequencies --    814.4559               832.8051               840.3916
 Red. masses --      1.6604                 2.1389                 8.9413
 Frc consts  --      0.6489                 0.8740                 3.7206
 IR Inten    --     31.8545                37.9590               162.9320

                     34                     35                     36
                      A                      A                      A
 Frequencies --    922.8638               925.7279               933.3441
 Red. masses --      1.4230                 5.7042                 1.4548
 Frc consts  --      0.7141                 2.8801                 0.7467
 IR Inten    --      0.4138                12.9661                 0.0357

                     37                     38                     39
                      A                      A                      A
 Frequencies --    987.4029              1004.0266              1007.5252
 Red. masses --      6.7392                 1.3192                 1.3214
 Frc consts  --      3.8712                 0.7835                 0.7903
 IR Inten    --     95.9839                 0.1904                 0.5501

                     40                     41                     42
                      A                      A                      A
 Frequencies --   1051.9764              1084.6165              1107.0511
 Red. masses --      3.8258                 2.3375                 1.9296
 Frc consts  --      2.4945                 1.6202                 1.3933
 IR Inten    --     58.5825                21.4782                42.6479

                     43                     44                     45
                      A                      A                      A
 Frequencies --   1171.3768              1182.2763              1195.1418
 Red. masses --      2.2715                 1.2166                 1.1450
 Frc consts  --      1.8364                 1.0020                 0.9636
 IR Inten    --     12.4742                46.5581                16.3628

                     46                     47                     48
                      A                      A                      A
 Frequencies --   1208.3259              1226.9504              1274.1190
 Red. masses --      1.7800                 2.3463                 2.5977
 Frc consts  --      1.5313                 2.0810                 2.4846
 IR Inten    --    148.9556               531.3264               775.0250

                     49                     50                     51
                      A                      A                      A
 Frequencies --   1297.3422              1300.6213              1332.6343
 Red. masses --      3.3239                 3.0495                 4.0602
 Frc consts  --      3.2961                 3.0393                 4.2483
 IR Inten    --    747.2656               193.9680                67.5100

                     52                     53                     54
                      A                      A                      A
 Frequencies --   1367.5227              1377.6067              1393.9194
 Red. masses --      4.4014                 5.9811                 3.4404
 Frc consts  --      4.8496                 6.6878                 3.9385
 IR Inten    --    102.5407                72.9690               196.4223

                     55                     56                     57
                      A                      A                      A
 Frequencies --   1475.5805              1483.3942              1492.0505
 Red. masses --      2.3244                 2.5969                 2.8955
 Frc consts  --      2.9818                 3.3668                 3.7979
 IR Inten    --    136.6200                22.0066               211.8442

                     58                     59                     60
                      A                      A                      A
 Frequencies --   1513.3603              1598.1048              1607.0265
 Red. masses --      2.8317                 5.3038                 4.3904
 Frc consts  --      3.8210                 7.9808                 6.6804
 IR Inten    --    139.6746                87.2593                96.8368

                     61                     62                     63
                      A                      A                      A
 Frequencies --   1618.3688              1627.9283              1655.9232
 Red. masses --      6.3787                 5.5888                 6.9010
 Frc consts  --      9.8433                 8.7264                11.1491
 IR Inten    --    335.4911                16.0667               709.8243

                     64                     65                     66
                      A                      A                      A
 Frequencies --   1698.1918              3166.6303              3182.6888
 Red. masses --     11.0876                 1.0901                 1.0882
 Frc consts  --     18.8392                 6.4402                 6.4944
 IR Inten    --    218.1181                10.3530                10.6498

                     67                     68                     69
                      A                      A                      A
 Frequencies --   3191.9164              3197.8227              3211.5271
 Red. masses --      1.0926                 1.0940                 1.0935
 Frc consts  --      6.5587                 6.5912                 6.6449
 IR Inten    --     11.2272                10.8769                 6.5530

                     70                     71                     72
                      A                      A                      A
 Frequencies --   3215.8290              3245.9110              3786.2668
 Red. masses --      1.0931                 1.0686                 1.0663
 Frc consts  --      6.6605                 6.6332                 9.0063
 IR Inten    --      5.8273               645.2119               180.6848

 - Thermochemistry -
 -------------------
 Temperature   298.150 Kelvin.  Pressure   1.00000 Atm.
 Atom     1 has atomic number  8 and mass  15.99491

 Molecular mass:   240.04226 amu.
 Principal axes and moments of inertia in atomic units:
                           1         2         3
     Eigenvalues --  2398.843204859.258027258.09802
           X            0.99618  -0.08670   0.01070
           Y            0.08726   0.98186  -0.16832
           Z            0.00409   0.16861   0.98567
 This molecule is an asymmetric top.
 Rotational symmetry number  1.
 Warning -- assumption of classical behavior for rotation
           may cause significant error
 Rotational temperatures (Kelvin)      0.03611     0.01782     0.01193
 Rotational constants (GHZ):           0.75234     0.37140     0.24865
 Zero-point vibrational energy     492554.0 (Joules/Mol)
                                  117.72322 (Kcal/Mol)
 Warning -- explicit consideration of  22 degrees of freedom as
           vibrations may cause significant error
 Vibrational temperatures:     43.36    87.06   144.37   230.64   282.16
          (Kelvin)            287.52   335.28   389.42   449.48   488.52
                              534.07   602.11   620.04   626.81   644.05
                              667.58   695.18   700.82   761.13   795.96
                              832.55   833.99   910.43   962.89  1018.88
                             1032.21  1092.08  1131.49  1135.51  1145.52
                             1171.82  1198.22  1209.14  1327.80  1331.92
                             1342.87  1420.65  1444.57  1449.60  1513.56
                             1560.52  1592.80  1685.35  1701.03  1719.54
                             1738.51  1765.31  1833.17  1866.59  1871.30
                             1917.36  1967.56  1982.07  2005.54  2123.03
                             2134.27  2146.73  2177.39  2299.32  2312.15
                             2328.47  2342.23  2382.50  2443.32  4556.07
                             4579.18  4592.46  4600.95  4620.67  4626.86
                             4670.14  5447.59

 Zero-point correction=                           0.187604 (Hartree/Particle)
 Thermal correction to Energy=                    0.200830
 Thermal correction to Enthalpy=                  0.201774
 Thermal correction to Gibbs Free Energy=         0.147364
 Sum of electronic and zero-point Energies=           -839.278896
 Sum of electronic and thermal Energies=              -839.265670
 Sum of electronic and thermal Enthalpies=            -839.264725
 Sum of electronic and thermal Free Energies=         -839.319135

                     E (Thermal)             CV                S
                      KCal/Mol        Cal/Mol-Kelvin    Cal/Mol-Kelvin
 Total                  126.023             53.666            114.515
 Electronic               0.000              0.000              0.000
 Translational            0.889              2.981             42.328
 Rotational               0.889              2.981             32.803
 Vibrational            124.245             47.705             39.384
 Vibration     1          0.594              1.984              5.820
 Vibration     2          0.597              1.973              4.441
 Vibration     3          0.604              1.949              3.448
 Vibration     4          0.622              1.891              2.546
 Vibration     5          0.636              1.845              2.169
 Vibration     6          0.638              1.840              2.135
 Vibration     7          0.654              1.790              1.855
 Vibration     8          0.674              1.727              1.592
 Vibration     9          0.701              1.650              1.350
 Vibration    10          0.719              1.596              1.214
 Vibration    11          0.743              1.531              1.075
 Vibration    12          0.781              1.430              0.897
 Vibration    13          0.792              1.403              0.856
 Vibration    14          0.796              1.392              0.840
 Vibration    15          0.807              1.366              0.803
 Vibration    16          0.822              1.330              0.755
 Vibration    17          0.839              1.287              0.702
 Vibration    18          0.843              1.279              0.691
 Vibration    19          0.884              1.186              0.589
 Vibration    20          0.909              1.133              0.538
 Vibration    21          0.935              1.077              0.488
 Vibration    22          0.936              1.075              0.486

                           ! Non-Optimized Parameters !
 Normal termination of Gaussian 16 at Sat Feb 10 22:53:05 2024.
