 Q-Chem 5.4, Q-Chem, Inc., Pleasanton, CA (2021)
 Q-Chem 5.4.0 for Intel X86 EM64T Linux

User input:
--------------------------------------------------------------
$molecule
0 1
C                 -0.7843740000      2.8426190000     -0.6035500000
C                 -2.1385610000      2.5124030000     -0.6862690000
C                 -2.5949140000      1.2704640000     -0.2612960000
C                  0.1156370000      1.8967890000     -0.0938060000
C                 -0.3438230000      0.6305760000      0.3213610000
C                 -1.7062200000      0.3149300000      0.2310050000
C                  1.5598730000      2.2547450000      0.0360620000
C                  2.5190590000      1.1533810000      0.3406990000
C                  2.0696760000     -0.0270600000      0.7927470000
C                  0.6272090000     -0.3434740000      0.9026100000
O                  1.9297290000      3.4113980000     -0.0402750000
O                  0.2689810000     -1.3686140000      1.4550810000
H                 -3.6505040000      1.0334730000     -0.3231230000
H                  2.7524430000     -0.8036940000      1.1193500000
C                 -2.2850020000     -1.0097910000      0.6595640000
O                 -3.0062860000     -1.1366370000      1.6164350000
O                 -1.9834310000     -1.9792640000     -0.2132720000
C                 -2.4393380000     -3.3040500000      0.1345340000
H                 -2.8395760000      3.2291040000     -1.0989090000
H                 -2.1328640000     -3.9398540000     -0.6924470000
H                 -3.5232170000     -3.3154380000      0.2517920000
H                 -1.9653170000     -3.6224740000      1.0635020000
C                  4.0019090000      1.3924150000      0.2443340000
O                  4.7954540000      0.9984470000      1.0637570000
O                  4.3138100000      2.0382830000     -0.8803270000
C                 -0.3598070000      4.1595420000     -1.2267990000
O                 -0.0874480000      4.2127220000     -2.3958740000
O                 -0.4535830000      5.2826040000     -0.4937260000
C                 -0.5577300000      5.2259530000      0.9402070000
C                  5.7130880000      2.3265820000     -1.0859530000
H                 -0.7025890000      6.2567060000      1.2564800000
H                  0.3671910000      4.8353330000      1.3655620000
H                 -1.4108490000      4.6241260000      1.2592430000
H                  5.7592770000      2.8509760000     -2.0367400000
H                  6.2884860000      1.4009720000     -1.1228040000
H                  6.0863400000      2.9564160000     -0.2780840000
$end

$rem
BASIS  =  6-311++G(d,p)
GUI  =  2
JOB_TYPE  =  SP
METHOD  =  B3LYP
SCF_CONVERGENCE  = 8
SOLVENT_METHOD = sm12
$end

$smx
solvent dimethylformamide
charges CM5
$end

--------------------------------------------------------------

             Standard Nuclear Orientation (Angstroms)
    I     Atom           X                Y                Z
 ----------------------------------------------------------------
    1      C      -0.7843740000     2.8426190000    -0.6035500000
    2      C      -2.1385610000     2.5124030000    -0.6862690000
    3      C      -2.5949140000     1.2704640000    -0.2612960000
    4      C       0.1156370000     1.8967890000    -0.0938060000
    5      C      -0.3438230000     0.6305760000     0.3213610000
    6      C      -1.7062200000     0.3149300000     0.2310050000
    7      C       1.5598730000     2.2547450000     0.0360620000
    8      C       2.5190590000     1.1533810000     0.3406990000
    9      C       2.0696760000    -0.0270600000     0.7927470000
   10      C       0.6272090000    -0.3434740000     0.9026100000
   11      O       1.9297290000     3.4113980000    -0.0402750000
   12      O       0.2689810000    -1.3686140000     1.4550810000
   13      H      -3.6505040000     1.0334730000    -0.3231230000
   14      H       2.7524430000    -0.8036940000     1.1193500000
   15      C      -2.2850020000    -1.0097910000     0.6595640000
   16      O      -3.0062860000    -1.1366370000     1.6164350000
   17      O      -1.9834310000    -1.9792640000    -0.2132720000
   18      C      -2.4393380000    -3.3040500000     0.1345340000
   19      H      -2.8395760000     3.2291040000    -1.0989090000
   20      H      -2.1328640000    -3.9398540000    -0.6924470000
   21      H      -3.5232170000    -3.3154380000     0.2517920000
   22      H      -1.9653170000    -3.6224740000     1.0635020000
   23      C       4.0019090000     1.3924150000     0.2443340000
   24      O       4.7954540000     0.9984470000     1.0637570000
   25      O       4.3138100000     2.0382830000    -0.8803270000
   26      C      -0.3598070000     4.1595420000    -1.2267990000
   27      O      -0.0874480000     4.2127220000    -2.3958740000
   28      O      -0.4535830000     5.2826040000    -0.4937260000
   29      C      -0.5577300000     5.2259530000     0.9402070000
   30      C       5.7130880000     2.3265820000    -1.0859530000
   31      H      -0.7025890000     6.2567060000     1.2564800000
   32      H       0.3671910000     4.8353330000     1.3655620000
   33      H      -1.4108490000     4.6241260000     1.2592430000
   34      H       5.7592770000     2.8509760000    -2.0367400000
   35      H       6.2884860000     1.4009720000    -1.1228040000
   36      H       6.0863400000     2.9564160000    -0.2780840000
 ----------------------------------------------------------------

   16   -1219.0476615503      3.11e-09  Convergence criterion met
 Total energy in the final basis set =    -1219.0787746709

                    Orbital Energies (a.u.)
 --------------------------------------------------------------

 Alpha MOs
 -- Occupied --
-19.1848 -19.1787 -19.1759 -19.1520 -19.1504 -19.1332 -19.1270 -19.1230
-10.3275 -10.3233 -10.3214 -10.3041 -10.2996 -10.2399 -10.2332 -10.2327
-10.2323 -10.2309 -10.2308 -10.2264 -10.2242 -10.2213 -10.2176 -10.2169
 -1.1301  -1.1227  -1.1167  -1.0871  -1.0830  -1.0439  -1.0391  -1.0378
 -0.9151  -0.8683  -0.8204  -0.8046  -0.7552  -0.7429  -0.7335  -0.7159
 -0.6865  -0.6698  -0.6455  -0.6003  -0.5881  -0.5751  -0.5613  -0.5543
 -0.5392  -0.5346  -0.5267  -0.5050  -0.4993  -0.4926  -0.4903  -0.4868
 -0.4854  -0.4821  -0.4704  -0.4669  -0.4622  -0.4574  -0.4433  -0.4361
 -0.4309  -0.4296  -0.4144  -0.4113  -0.4104  -0.4048  -0.3977  -0.3939
 -0.3729  -0.3677  -0.3606  -0.3319  -0.3248  -0.3190  -0.3148  -0.3132
 -0.3093  -0.3032  -0.3018  -0.2950  -0.2876  -0.2778

          Ground-State Mulliken Net Atomic Charges

     Atom                 Charge (a.u.)
  ----------------------------------------
      1 C                    -0.199285
      2 C                     1.056231
      3 C                     0.742701
      4 C                     0.652961
      5 C                     0.527182
      6 C                     0.525957
      7 C                    -1.374003
      8 C                     0.327379
      9 C                    -0.026407
     10 C                    -0.791447
     11 O                    -0.186732
     12 O                    -0.225052
     13 H                     0.331975
     14 H                     0.311512
     15 C                    -1.285501
     16 O                    -0.222681
     17 O                     0.033756
     18 C                    -0.159308
     19 H                     0.359628
     20 H                     0.224435
     21 H                     0.185392
     22 H                     0.186105
     23 C                    -0.182993
     24 O                    -0.259627
     25 O                    -0.050558
     26 C                    -1.069376
     27 O                    -0.309304
     28 O                    -0.029446
     29 C                    -0.241732
     30 C                    -0.141824
     31 H                     0.230644
     32 H                     0.194715
     33 H                     0.224145
     34 H                     0.222159
     35 H                     0.208115
     36 H                     0.210283
  ----------------------------------------
  Sum of atomic charges =     0.000000

                    Cartesian Multipole Moments
 -----------------------------------------------------------------
    Charge (ESU x 10^10)
                 0.0000
    Dipole Moment (Debye)
         X      -1.1108      Y      -1.0947      Z      -0.1059
       Tot       1.5632
    Quadrupole Moments (Debye-Ang)
        XX    -120.5012     XY      -2.4316     YY    -136.7972
        XZ      -3.0702     YZ      21.8790     ZZ    -152.4174

 Total job time:  1347.13s(wall), 10477.29s(cpu)
        *  Thank you very much for using Q-Chem.  Have a nice day.  *
