 Q-Chem 5.4, Q-Chem, Inc., Pleasanton, CA (2021)
 Q-Chem 5.4.0 for Intel X86 EM64T Linux

User input:
--------------------------------------------------------------
$molecule
0 1
N                 -4.5123570000     -0.8893230000     -0.7774490000
C                 -3.2682400000     -0.6408720000     -0.2323240000
C                 -3.0675900000     -0.7108990000      1.1617370000
C                 -1.8120990000     -0.5059270000      1.7020800000
C                 -0.7094120000     -0.2260560000      0.8833380000
C                  0.6193500000     -0.0119900000      1.4941200000
O                  0.7924630000     -0.0701040000      2.7040300000
C                  1.7595410000      0.2815830000      0.5703000000
C                  3.0327400000      0.4874640000      1.1086500000
C                  4.1100100000      0.7620020000      0.2737770000
C                  3.9252460000      0.8340200000     -1.1096760000
C                  2.6629450000      0.6313090000     -1.6544390000
C                  1.5737050000      0.3542220000     -0.8218500000
C                  0.2303180000      0.1416970000     -1.4339540000
O                  0.0644260000      0.2088580000     -2.6414520000
C                 -0.9061120000     -0.1564790000     -0.5093280000
C                 -2.1680010000     -0.3622260000     -1.0557270000
H                 -5.3154550000     -0.8192080000     -0.1728270000
H                 -4.6768120000     -0.5938770000     -1.7268320000
H                 -3.9085850000     -0.9308770000      1.8114650000
H                 -1.6564890000     -0.5577450000      2.7728120000
H                  3.1525910000      0.4270770000      2.1832900000
H                  5.0952890000      0.9204020000      0.6976560000
H                  4.7666210000      1.0481010000     -1.7589770000
H                  2.4958540000      0.6823910000     -2.7232550000
H                 -2.2799470000     -0.3035420000     -2.1324930000
$end

$rem
BASIS  =  6-311++G(d,p)
GUI  =  2
JOB_TYPE  =  SP
METHOD  =  B3LYP
SCF_CONVERGENCE  = 8
SOLVENT_METHOD = sm12
$end

$smx
solvent dimethylformamide
charges CM5
$end

--------------------------------------------------------------

             Standard Nuclear Orientation (Angstroms)
    I     Atom           X                Y                Z
 ----------------------------------------------------------------
    1      N      -4.5123570000    -0.8893230000    -0.7774490000
    2      C      -3.2682400000    -0.6408720000    -0.2323240000
    3      C      -3.0675900000    -0.7108990000     1.1617370000
    4      C      -1.8120990000    -0.5059270000     1.7020800000
    5      C      -0.7094120000    -0.2260560000     0.8833380000
    6      C       0.6193500000    -0.0119900000     1.4941200000
    7      O       0.7924630000    -0.0701040000     2.7040300000
    8      C       1.7595410000     0.2815830000     0.5703000000
    9      C       3.0327400000     0.4874640000     1.1086500000
   10      C       4.1100100000     0.7620020000     0.2737770000
   11      C       3.9252460000     0.8340200000    -1.1096760000
   12      C       2.6629450000     0.6313090000    -1.6544390000
   13      C       1.5737050000     0.3542220000    -0.8218500000
   14      C       0.2303180000     0.1416970000    -1.4339540000
   15      O       0.0644260000     0.2088580000    -2.6414520000
   16      C      -0.9061120000    -0.1564790000    -0.5093280000
   17      C      -2.1680010000    -0.3622260000    -1.0557270000
   18      H      -5.3154550000    -0.8192080000    -0.1728270000
   19      H      -4.6768120000    -0.5938770000    -1.7268320000
   20      H      -3.9085850000    -0.9308770000     1.8114650000
   21      H      -1.6564890000    -0.5577450000     2.7728120000
   22      H       3.1525910000     0.4270770000     2.1832900000
   23      H       5.0952890000     0.9204020000     0.6976560000
   24      H       4.7666210000     1.0481010000    -1.7589770000
   25      H       2.4958540000     0.6823910000    -2.7232550000
   26      H      -2.2799470000    -0.3035420000    -2.1324930000
 ----------------------------------------------------------------

   15    -744.3312178030      2.69e-09  Convergence criterion met
 Total energy in the final basis set =     -744.3601870602

                    Orbital Energies (a.u.)
 --------------------------------------------------------------

 Alpha MOs
 -- Occupied --
-19.1271 -19.1171 -14.3303 -10.2789 -10.2711 -10.2396 -10.2056 -10.2053
-10.2051 -10.1963 -10.1957 -10.1951 -10.1940 -10.1936 -10.1923 -10.1891
-10.1884  -1.0615  -1.0516  -0.9365  -0.8870  -0.8669  -0.8019  -0.7755
 -0.7728  -0.7542  -0.6848  -0.6636  -0.6387  -0.6181  -0.5846  -0.5615
 -0.5578  -0.5235  -0.5064  -0.4948  -0.4827  -0.4670  -0.4513  -0.4504
 -0.4491  -0.4452  -0.4428  -0.4295  -0.4125  -0.4093  -0.4005  -0.3787
 -0.3739  -0.3713  -0.3614  -0.3257  -0.2828  -0.2817  -0.2772  -0.2739
 -0.2681  -0.2259

          Ground-State Mulliken Net Atomic Charges

     Atom                 Charge (a.u.)
  ----------------------------------------
      1 N                    -0.110855
      2 C                     0.892656
      3 C                     0.910021
      4 C                     0.114847
      5 C                    -0.697831
      6 C                    -1.681957
      7 O                    -0.290364
      8 C                    -0.726745
      9 C                     0.019219
     10 C                     0.409481
     11 C                     0.428382
     12 C                     0.155587
     13 C                    -0.165441
     14 C                    -1.600032
     15 O                    -0.242136
     16 C                    -0.134399
     17 C                     0.256872
     18 H                     0.381009
     19 H                     0.369562
     20 H                     0.324294
     21 H                     0.172803
     22 H                     0.180776
     23 H                     0.325345
     24 H                     0.330996
     25 H                     0.191626
     26 H                     0.186284
  ----------------------------------------
  Sum of atomic charges =     0.000000

                    Cartesian Multipole Moments
 -----------------------------------------------------------------
    Charge (ESU x 10^10)
                 0.0000
    Dipole Moment (Debye)
         X      -3.5932      Y       0.1551      Z      -1.2215
       Tot       3.7983
    Quadrupole Moments (Debye-Ang)
        XX     -50.7390     XY       5.8877     YY    -101.5079
        XZ      -1.5423     YZ      -0.6242     ZZ    -108.4271

 Total job time:  487.00s(wall), 3792.84s(cpu)
        *  Thank you very much for using Q-Chem.  Have a nice day.  *
