 Gaussian 16, Revision A.03,
 Gaussian 16:  ES64L-G16RevA.03 25-Dec-2016

 --------------------------------------
 #P UB3LYP/6-311++G(d,p) nosym opt freq
 --------------------------------------

 -------
 Radical
 -------
 Symbolic Z-matrix:
 Charge = -1 Multiplicity = 2

 SCF Done:  E(UB3LYP) =  -838.095408786     A.U. after   22 cycles
 SCF Done:  E(UB3LYP) =  -838.117922067     A.U. after   22 cycles
 SCF Done:  E(UB3LYP) =  -838.124509297     A.U. after   21 cycles
 SCF Done:  E(UB3LYP) =  -838.129082123     A.U. after   18 cycles
 SCF Done:  E(UB3LYP) =  -838.130565642     A.U. after   19 cycles
 SCF Done:  E(UB3LYP) =  -838.132490797     A.U. after   22 cycles
 SCF Done:  E(UB3LYP) =  -838.133068093     A.U. after   18 cycles
 SCF Done:  E(UB3LYP) =  -838.133076034     A.U. after   19 cycles
 SCF Done:  E(UB3LYP) =  -838.133413417     A.U. after   15 cycles
 SCF Done:  E(UB3LYP) =  -838.133453370     A.U. after   16 cycles
 SCF Done:  E(UB3LYP) =  -838.134286055     A.U. after   17 cycles
 SCF Done:  E(UB3LYP) =  -838.134329540     A.U. after   17 cycles
 SCF Done:  E(UB3LYP) =  -838.134331758     A.U. after   15 cycles
 SCF Done:  E(UB3LYP) =  -838.134349899     A.U. after   15 cycles
 SCF Done:  E(UB3LYP) =  -838.134350078     A.U. after   16 cycles
 SCF Done:  E(UB3LYP) =  -838.134356385     A.U. after   15 cycles
 SCF Done:  E(UB3LYP) =  -838.134359858     A.U. after   13 cycles
 SCF Done:  E(UB3LYP) =  -838.134359991     A.U. after   11 cycles
 SCF Done:  E(UB3LYP) =  -838.134360044     A.U. after   10 cycles
 Optimization completed.
    -- Stationary point found.
 Normal termination of Gaussian 16 at Wed Dec 27 00:34:12 2023.

 ----------------------------------------------------------------------
 #P Geom=AllCheck Guess=TCheck SCRF=Check GenChk UB3LYP/6-311++G(d,p) F
 req
 ----------------------------------------------------------------------

 Structure from the checkpoint file:  "272-rad.chk"
 -------
 Radical
 -------
 Charge = -1 Multiplicity = 2

                          Input orientation:
 ---------------------------------------------------------------------
 Center     Atomic      Atomic             Coordinates (Angstroms)
 Number     Number       Type             X           Y           Z
 ---------------------------------------------------------------------
      1          6           0       -0.883540    3.828509   -0.016955
      2          6           0       -1.976228    3.068320    0.357949
      3          6           0       -1.843379    1.674813    0.528652
      4          6           0        0.377054    3.232339   -0.232689
      5          6           0        0.509658    1.826646   -0.056315
      6          6           0       -0.615459    1.070190    0.321207
      7          6           0        1.511799    4.050286   -0.637093
      8          6           0        2.788681    3.375470   -0.854085
      9          6           0        2.916923    2.010361   -0.611069
     10          6           0        1.798006    1.169709   -0.260330
     11          8           0        1.429472    5.300157   -0.814087
     12          8           0        1.948310   -0.085650   -0.158319
     13          7           0        3.793908    4.173657   -1.353010
     14          1           0       -0.962144    4.900378   -0.157841
     15          1           0       -2.938923    3.544388    0.520328
     16          1           0       -2.702223    1.078808    0.822470
     17          1           0       -0.483036    0.001369    0.444638
     18          1           0        3.537545    5.152958   -1.288112
     19          1           0        4.735937    3.923905   -1.062827
     20          7           0        4.086818    1.229505   -0.813904
     21          1           0        3.804390    0.248314   -0.818246
     22          6           0        5.402535    1.488474   -0.645714
     23          6           0        6.316950    0.282716   -0.877596
     24          6           0        7.408357    0.173642    0.191267
     25          8           0        5.892618    2.586865   -0.360037
     26          1           0        6.781120    0.423199   -1.861278
     27          1           0        5.734273   -0.641648   -0.932234
     28          1           0        7.960384    1.112382    0.262080
     29          1           0        8.109990   -0.631085   -0.048455
     30          1           0        6.975134   -0.035356    1.173685
 ---------------------------------------------------------------------

 SCF Done:  E(UB3LYP) =  -838.134360044     A.U. after    2 cycles

 Alpha  occ. eigenvalues --  -18.98424 -18.95119 -18.95037 -14.23364 -14.18219
 Alpha  occ. eigenvalues --  -10.16865 -10.10050 -10.09391 -10.08859 -10.08607
 Alpha  occ. eigenvalues --  -10.07848 -10.07642 -10.05800 -10.05704 -10.05234
 Alpha  occ. eigenvalues --  -10.05131 -10.05103 -10.05058  -0.93230  -0.88067
 Alpha  occ. eigenvalues --   -0.87507  -0.81837  -0.78050  -0.73750  -0.68907
 Alpha  occ. eigenvalues --   -0.66830  -0.63134  -0.61661  -0.56959  -0.54382
 Alpha  occ. eigenvalues --   -0.50956  -0.49791  -0.46384  -0.44474  -0.42058
 Alpha  occ. eigenvalues --   -0.39846  -0.39038  -0.38441  -0.36708  -0.35229
 Alpha  occ. eigenvalues --   -0.33311  -0.32919  -0.32053  -0.31621  -0.30716
 Alpha  occ. eigenvalues --   -0.30360  -0.29396  -0.28236  -0.27984  -0.27444
 Alpha  occ. eigenvalues --   -0.26584  -0.25872  -0.25347  -0.24068  -0.23566
 Alpha  occ. eigenvalues --   -0.21901  -0.20074  -0.17999  -0.15890  -0.14159
 Alpha  occ. eigenvalues --   -0.13671  -0.12710  -0.11704  -0.08426  -0.02112
 Alpha virt. eigenvalues --    0.06698   0.08264   0.08437   0.09160   0.09943
 Alpha virt. eigenvalues --    0.10195   0.10476   0.10630   0.11793   0.12369
 Alpha virt. eigenvalues --    0.12791   0.13679   0.13950   0.14485   0.15471

  Beta  occ. eigenvalues --  -18.98418 -18.94644 -18.94338 -14.23366 -14.18129
  Beta  occ. eigenvalues --  -10.16863 -10.09889 -10.09181 -10.08860 -10.08455
  Beta  occ. eigenvalues --  -10.07848 -10.07655 -10.05768 -10.05626 -10.05258
  Beta  occ. eigenvalues --  -10.05105 -10.05021 -10.04973  -0.93217  -0.87314
  Beta  occ. eigenvalues --   -0.86357  -0.81695  -0.77748  -0.73537  -0.68875
  Beta  occ. eigenvalues --   -0.66448  -0.62927  -0.61521  -0.56659  -0.53794
  Beta  occ. eigenvalues --   -0.50800  -0.49609  -0.46184  -0.44279  -0.41906
  Beta  occ. eigenvalues --   -0.39759  -0.38966  -0.38265  -0.36691  -0.34903
  Beta  occ. eigenvalues --   -0.33221  -0.32826  -0.31898  -0.31519  -0.30548
  Beta  occ. eigenvalues --   -0.30121  -0.28647  -0.27929  -0.27642  -0.27246
  Beta  occ. eigenvalues --   -0.26179  -0.25722  -0.24071  -0.23201  -0.22967
  Beta  occ. eigenvalues --   -0.21720  -0.18755  -0.17353  -0.15821  -0.12946
  Beta  occ. eigenvalues --   -0.12285  -0.12201  -0.11096  -0.07622
  Beta virt. eigenvalues --    0.04254   0.06717   0.08257   0.08974   0.09243
  Beta virt. eigenvalues --    0.10062   0.10263   0.10494   0.11188   0.11813
  Beta virt. eigenvalues --    0.12378   0.13028   0.13830   0.14084   0.14515

 Mulliken charges and spin densities:
               1          2
     1  C    0.070201   0.046727
     2  C   -0.253866   0.023964
     3  C   -0.330382   0.066634
     4  C    0.621135   0.035477
     5  C    0.043662   0.066539
     6  C    0.032458   0.014652
     7  C   -0.882783   0.127916
     8  C    0.394520   0.070344
     9  C    0.622623  -0.007573
    10  C   -1.155090   0.087192
    11  O   -0.405872   0.259803
    12  O   -0.402764   0.176900
    13  N   -0.411929   0.049589
    14  H    0.154302  -0.003108
    15  H    0.120116  -0.002086
    16  H    0.122642  -0.005041
    17  H    0.153603  -0.000062
    18  H    0.275689  -0.003187
    19  H    0.282179   0.000088
    20  N   -0.003993  -0.004333
    21  H    0.347602  -0.002198
    22  C    0.081272   0.001507
    23  C   -0.237873  -0.002462
    24  C   -0.549689  -0.000085
    25  O   -0.384711   0.001606
    26  H    0.152091   0.000937
    27  H    0.112664   0.000197
    28  H    0.173134  -0.000231
    29  H    0.124457  -0.000191
    30  H    0.134600   0.000487
 Sum of Mulliken charges =  -1.00000   1.00000

 Dipole moment (field-independent basis, Debye):
    X=             -9.3647    Y=            -13.8199    Z=              1.8137  Tot=             16.7921
 Quadrupole moment (field-independent basis, Debye-Ang):
   XX=           -150.5137   YY=           -172.3985   ZZ=           -115.1663
   XY=            -29.4749   XZ=              2.5417   YZ=              9.9107

  Exact polarizability: 314.325 -15.345 225.310 -31.880 -16.349 121.060
 Approx polarizability: 428.562   9.843 412.780 -48.761 -34.825 190.069

                      1                      2                      3
                      A                      A                      A
 Frequencies --     30.7584                52.2629                63.2230
 Red. masses --      2.9900                 7.1909                 3.2142
 Frc consts  --      0.0017                 0.0116                 0.0076
 IR Inten    --      0.5725                 0.8644                 2.1516

                      4                      5                      6
                      A                      A                      A
 Frequencies --     96.2115               126.4709               139.5969
 Red. masses --      5.7241                 4.7243                 4.2579
 Frc consts  --      0.0312                 0.0445                 0.0489
 IR Inten    --      5.3048                 1.7904                 2.2710

                      7                      8                      9
                      A                      A                      A
 Frequencies --    173.1137               186.6634               213.8731
 Red. masses --      5.6781                 6.0972                 1.2133
 Frc consts  --      0.1003                 0.1252                 0.0327
 IR Inten    --      1.0873                 0.8094                 0.3867

                     10                     11                     12
                      A                      A                      A
 Frequencies --    251.8407               268.2646               294.0056
 Red. masses --      5.2930                 4.2740                 4.7875
 Frc consts  --      0.1978                 0.1812                 0.2438
 IR Inten    --      0.9236                 6.1046                 9.2442

                     13                     14                     15
                      A                      A                      A
 Frequencies --    312.2569               347.6958               377.8235
 Red. masses --      4.9797                 5.1231                 3.9347
 Frc consts  --      0.2861                 0.3649                 0.3309
 IR Inten    --      1.5177                 6.1772                 8.4438

                     16                     17                     18
                      A                      A                      A
 Frequencies --    387.9997               422.3644               428.0903
 Red. masses --     10.0058                 7.3788                 6.8424
 Frc consts  --      0.8875                 0.7755                 0.7388
 IR Inten    --     12.3966                 1.0217                 1.9720

                     19                     20                     21
                      A                      A                      A
 Frequencies --    458.5569               484.8858               527.2918
 Red. masses --      3.5572                 6.9564                 5.5936
 Frc consts  --      0.4407                 0.9636                 0.9163
 IR Inten    --      2.7811                 7.5141                 5.5647

                     22                     23                     24
                      A                      A                      A
 Frequencies --    550.0051               590.4123               609.2571
 Red. masses --      4.6758                 4.4645                 1.0888
 Frc consts  --      0.8334                 0.9169                 0.2381
 IR Inten    --      3.5072                12.3732                25.6964

                     25                     26                     27
                      A                      A                      A
 Frequencies --    650.2991               679.3926               697.7165
 Red. masses --      5.7290                 5.9193                 3.2658
 Frc consts  --      1.4274                 1.6098                 0.9367
 IR Inten    --     26.5455                 2.8400                47.2580

                     28                     29                     30
                      A                      A                      A
 Frequencies --    702.3040               706.1315               731.8449
 Red. masses --      4.3819                 3.2505                 3.2372
 Frc consts  --      1.2734                 0.9549                 1.0215
 IR Inten    --     20.1055                41.1758                 6.6498

                     31                     32                     33
                      A                      A                      A
 Frequencies --    750.0760               766.8638               775.9199
 Red. masses --      1.3854                 1.7007                 1.7020
 Frc consts  --      0.4592                 0.5893                 0.6037
 IR Inten    --    228.1653                80.7313                32.2871

                     34                     35                     36
                      A                      A                      A
 Frequencies --    779.0427               804.5277               860.7065
 Red. masses --      3.3680                 1.3399                 5.0026
 Frc consts  --      1.2043                 0.5110                 2.1835
 IR Inten    --      8.5544                 6.6985                 4.9822

                     37                     38                     39
                      A                      A                      A
 Frequencies --    862.2727               930.8158               959.4430
 Red. masses --      1.4126                 4.2788                 3.4274
 Frc consts  --      0.6188                 2.1842                 1.8589
 IR Inten    --      0.1483                26.7191                14.8344

                     40                     41                     42
                      A                      A                      A
 Frequencies --    972.0673               975.5151              1026.2304
 Red. masses --      1.3575                 1.2601                 2.9921
 Frc consts  --      0.7558                 0.7065                 1.8566
 IR Inten    --      2.5762                 0.2314                 5.8731

                     43                     44                     45
                      A                      A                      A
 Frequencies --   1038.4333              1062.7620              1089.1128
 Red. masses --      2.1556                 2.6599                 2.0131
 Frc consts  --      1.3696                 1.7701                 1.4069
 IR Inten    --     27.8215                 7.3835                 0.5602

                     46                     47                     48
                      A                      A                      A
 Frequencies --   1095.0973              1112.9244              1153.4594
 Red. masses --      1.7998                 1.8473                 1.2430
 Frc consts  --      1.2717                 1.3481                 0.9744
 IR Inten    --      2.1863                17.8637                 3.7453

                     49                     50                     51
                      A                      A                      A
 Frequencies --   1187.7287              1206.9062              1232.7873
 Red. masses --      3.1838                 2.2009                 2.1484
 Frc consts  --      2.6463                 1.8889                 1.9238
 IR Inten    --      7.2341                14.9639                 6.6361

                     52                     53                     54
                      A                      A                      A
 Frequencies --   1262.4139              1270.6608              1302.1200
 Red. masses --      2.7803                 1.5641                 1.5884
 Frc consts  --      2.6107                 1.4879                 1.5868
 IR Inten    --      4.1549                33.8633                33.5838

                     55                     56                     57
                      A                      A                      A
 Frequencies --   1320.3982              1357.0801              1374.6984
 Red. masses --      2.2381                 8.9740                 1.7100
 Frc consts  --      2.2990                 9.7375                 1.9040
 IR Inten    --     21.2174                20.7859                25.1457

                     58                     59                     60
                      A                      A                      A
 Frequencies --   1400.2789              1422.5847              1466.3967
 Red. masses --      1.2383                 2.8274                 3.4256
 Frc consts  --      1.4306                 3.3713                 4.3400
 IR Inten    --      5.0231                84.0383               160.2781

                     61                     62                     63
                      A                      A                      A
 Frequencies --   1470.5251              1473.8464              1492.2147
 Red. masses --      2.6802                 1.1753                 1.0417
 Frc consts  --      3.4148                 1.5042                 1.3667
 IR Inten    --    162.1398                 8.0417                13.8690

                     64                     65                     66
                      A                      A                      A
 Frequencies --   1508.2958              1512.0408              1527.3386
 Red. masses --      1.0618                 4.9234                 6.3646
 Frc consts  --      1.4233                 6.6320                 8.7476
 IR Inten    --      8.7170               487.1162                71.7336

                     67                     68                     69
                      A                      A                      A
 Frequencies --   1556.0584              1564.2814              1601.2858
 Red. masses --      3.0516                 2.9529                 2.4432
 Frc consts  --      4.3534                 4.2573                 3.6911
 IR Inten    --    274.3097               280.7011                 1.9306

                     70                     71                     72
                      A                      A                      A
 Frequencies --   1619.7813              1638.8013              1691.7927
 Red. masses --      5.8654                 2.3123                 4.9757
 Frc consts  --      9.0670                 3.6588                 8.3906
 IR Inten    --     23.5045               135.2321               301.6195

                     73                     74                     75
                      A                      A                      A
 Frequencies --   3015.0933              3023.1328              3056.9520
 Red. masses --      1.0632                 1.0372                 1.0977
 Frc consts  --      5.6944                 5.5848                 6.0437
 IR Inten    --     23.0173                65.7382                16.2374

                     76                     77                     78
                      A                      A                      A
 Frequencies --   3080.0665              3109.2692              3134.1651
 Red. masses --      1.1017                 1.1003                 1.0846
 Frc consts  --      6.1580                 6.2675                 6.2772
 IR Inten    --     50.6245                21.3828                15.7468

                     79                     80                     81
                      A                      A                      A
 Frequencies --   3153.4175              3181.6405              3184.2868
 Red. masses --      1.0910                 1.0914                 1.0930
 Frc consts  --      6.3920                 6.5095                 6.5295
 IR Inten    --     50.3462                12.7167                26.9775

                     82                     83                     84
                      A                      A                      A
 Frequencies --   3433.3046              3443.5090              3573.6457
 Red. masses --      1.0694                 1.0562                 1.0966
 Frc consts  --      7.4273                 7.3789                 8.2515
 IR Inten    --     28.2611               186.0404               103.1012

 - Thermochemistry -
 -------------------
 Temperature   298.150 Kelvin.  Pressure   1.00000 Atm.
 Atom     1 has atomic number  6 and mass  12.00000

 Molecular mass:   244.08479 amu.
 Principal axes and moments of inertia in atomic units:
                           1         2         3
     Eigenvalues --  2047.438867143.094018972.55604
           X            0.96679   0.22122   0.12794
           Y           -0.24317   0.95030   0.19439
           Z           -0.07858  -0.21905   0.97255
 This molecule is an asymmetric top.
 Rotational symmetry number  1.
 Warning -- assumption of classical behavior for rotation
           may cause significant error
 Rotational temperatures (Kelvin)      0.04230     0.01213     0.00965
 Rotational constants (GHZ):           0.88146     0.25266     0.20114
 Zero-point vibrational energy     606654.3 (Joules/Mol)
                                  144.99386 (Kcal/Mol)
 Warning -- explicit consideration of  24 degrees of freedom as
           vibrations may cause significant error
 Vibrational temperatures:     44.25    75.19    90.96   138.43   181.96
          (Kelvin)            200.85   249.07   268.57   307.72   362.34
                              385.97   423.01   449.27   500.26   543.60
                              558.25   607.69   615.93   659.76   697.64
                              758.66   791.33   849.47   876.59   935.64
                              977.49  1003.86  1010.46  1015.97  1052.96
                             1079.19  1103.35  1116.38  1120.87  1157.54
                             1238.36  1240.62  1339.24  1380.42  1398.59
                             1403.55  1476.52  1494.07  1529.08  1566.99
                             1575.60  1601.25  1659.57  1708.88  1736.47
                             1773.71  1816.33  1828.20  1873.46  1899.76
                             1952.54  1977.88  2014.69  2046.78  2109.82
                             2115.76  2120.54  2146.96  2170.10  2175.49
                             2197.50  2238.82  2250.65  2303.89  2330.50
                             2357.87  2434.11  4338.05  4349.61  4398.27
                             4431.53  4473.54  4509.36  4537.06  4577.67
                             4581.48  4939.76  4954.44  5141.68

 Zero-point correction=                           0.231062 (Hartree/Particle)
 Thermal correction to Energy=                    0.246585
 Thermal correction to Enthalpy=                  0.247529
 Thermal correction to Gibbs Free Energy=         0.187096
 Sum of electronic and zero-point Energies=           -837.903298
 Sum of electronic and thermal Energies=              -837.887775
 Sum of electronic and thermal Enthalpies=            -837.886831
 Sum of electronic and thermal Free Energies=         -837.947264

                     E (Thermal)             CV                S
                      KCal/Mol        Cal/Mol-Kelvin    Cal/Mol-Kelvin
 Total                  154.734             60.402            127.192
 Electronic               0.000              0.000              1.377
 Translational            0.889              2.981             42.378
 Rotational               0.889              2.981             33.239
 Vibrational            152.957             54.440             50.197
 Vibration     1          0.594              1.984              5.780
 Vibration     2          0.596              1.977              4.730
 Vibration     3          0.597              1.972              4.354
 Vibration     4          0.603              1.952              3.530
 Vibration     5          0.611              1.927              2.999
 Vibration     6          0.615              1.914              2.809
 Vibration     7          0.627              1.876              2.401
 Vibration     8          0.632              1.858              2.261
 Vibration     9          0.644              1.820              2.010
 Vibration    10          0.664              1.760              1.718
 Vibration    11          0.673              1.731              1.607
 Vibration    12          0.689              1.685              1.451
 Vibration    13          0.701              1.650              1.350
 Vibration    14          0.725              1.580              1.177
 Vibration    15          0.748              1.517              1.048
 Vibration    16          0.756              1.496              1.008
 Vibration    17          0.785              1.422              0.884
 Vibration    18          0.790              1.409              0.865
 Vibration    19          0.817              1.342              0.770
 Vibration    20          0.841              1.284              0.697
 Vibration    21          0.882              1.190              0.593
 Vibration    22          0.905              1.140              0.544
 Vibration    23          0.948              1.052              0.466
 Vibration    24          0.968              1.012              0.434

 Optimization completed.
    -- Stationary point found.
 Normal termination of Gaussian 16 at Wed Dec 27 01:21:35 2023.
