 Q-Chem 5.4, Q-Chem, Inc., Pleasanton, CA (2021)
 Q-Chem 5.4.0 for Intel X86 EM64T Linux

User input:
--------------------------------------------------------------
$molecule
0 1
C                 -2.9637860000     -2.0529370000     -0.0358190000
C                 -2.3359990000     -0.6799800000     -0.0490140000
C                 -3.1974190000      0.4194560000     -0.0966560000
C                 -2.7267680000      1.7207070000     -0.1127190000
C                 -1.3610370000      2.0155470000     -0.0823040000
C                 -0.9652150000      3.4722970000     -0.1041380000
C                 -0.4608390000      0.9249150000     -0.0335710000
C                  1.0114410000      1.1930230000      0.0006470000
O                  1.4626140000      2.3294420000     -0.0128020000
C                  1.9511900000      0.0382500000      0.0526900000
C                  3.3292190000      0.2814430000      0.0855150000
C                  4.2215290000     -0.7813710000      0.1340010000
C                  3.7457300000     -2.0968270000      0.1500810000
C                  2.3796770000     -2.3437920000      0.1176390000
C                  1.4757470000     -1.2762250000      0.0688070000
C                  0.0143810000     -1.5636240000      0.0346480000
O                 -0.3657820000     -2.7257040000      0.0494750000
C                 -0.9460930000     -0.4166790000     -0.0170070000
H                 -2.6861800000     -2.6185540000      0.8552020000
H                 -2.6386780000     -2.6569830000     -0.8845290000
H                 -4.0512020000     -1.9548050000     -0.0676440000
H                 -4.2674500000      0.2430160000     -0.1217380000
H                 -3.4365810000      2.5401520000     -0.1500940000
H                 -0.3358090000      3.7098370000     -0.9633850000
H                 -0.3827230000      3.7487120000      0.7763100000
H                 -1.8640010000      4.0918480000     -0.1422210000
H                  3.6735180000      1.3077740000      0.0721280000
H                  5.2885420000     -0.5909090000      0.1593980000
H                  4.4442510000     -2.9251240000      0.1879230000
H                  1.9877250000     -3.3529090000      0.1291780000
$end
$rem
MAX_SCF_CYCLES=200
BASIS  =  6-311++G(d,p)
GUI  =  2
JOB_TYPE  =  SP
METHOD  =  B3LYP
SOLVENT_METHOD = PCM
$end
$pcm
theory = CPCM
$end
$solvent
dielectric 37.219
opticaldielectric 1.43
$end

--------------------------------------------------------------

             Standard Nuclear Orientation (Angstroms)
    I     Atom           X                Y                Z
 ----------------------------------------------------------------
    1      C      -2.9637860000    -2.0529370000    -0.0358190000
    2      C      -2.3359990000    -0.6799800000    -0.0490140000
    3      C      -3.1974190000     0.4194560000    -0.0966560000
    4      C      -2.7267680000     1.7207070000    -0.1127190000
    5      C      -1.3610370000     2.0155470000    -0.0823040000
    6      C      -0.9652150000     3.4722970000    -0.1041380000
    7      C      -0.4608390000     0.9249150000    -0.0335710000
    8      C       1.0114410000     1.1930230000     0.0006470000
    9      O       1.4626140000     2.3294420000    -0.0128020000
   10      C       1.9511900000     0.0382500000     0.0526900000
   11      C       3.3292190000     0.2814430000     0.0855150000
   12      C       4.2215290000    -0.7813710000     0.1340010000
   13      C       3.7457300000    -2.0968270000     0.1500810000
   14      C       2.3796770000    -2.3437920000     0.1176390000
   15      C       1.4757470000    -1.2762250000     0.0688070000
   16      C       0.0143810000    -1.5636240000     0.0346480000
   17      O      -0.3657820000    -2.7257040000     0.0494750000
   18      C      -0.9460930000    -0.4166790000    -0.0170070000
   19      H      -2.6861800000    -2.6185540000     0.8552020000
   20      H      -2.6386780000    -2.6569830000    -0.8845290000
   21      H      -4.0512020000    -1.9548050000    -0.0676440000
   22      H      -4.2674500000     0.2430160000    -0.1217380000
   23      H      -3.4365810000     2.5401520000    -0.1500940000
   24      H      -0.3358090000     3.7098370000    -0.9633850000
   25      H      -0.3827230000     3.7487120000     0.7763100000
   26      H      -1.8640010000     4.0918480000    -0.1422210000
   27      H       3.6735180000     1.3077740000     0.0721280000
   28      H       5.2885420000    -0.5909090000     0.1593980000
   29      H       4.4442510000    -2.9251240000     0.1879230000
   30      H       1.9877250000    -3.3529090000     0.1291780000
 ----------------------------------------------------------------

    8    -767.6104768311      9.83e-06  Convergence criterion met
 Total energy in the final basis set =     -767.6104768311

                    Orbital Energies (a.u.)
 --------------------------------------------------------------

 Alpha MOs
 -- Occupied --
-19.1243 -19.1243 -10.2787 -10.2787 -10.2078 -10.2073 -10.2060 -10.2060
-10.2030 -10.2025 -10.1943 -10.1938 -10.1928 -10.1928 -10.1884 -10.1878
-10.1647 -10.1646  -1.0622  -1.0604  -0.8899  -0.8798  -0.8086  -0.8042
 -0.7740  -0.7651  -0.7263  -0.6969  -0.6573  -0.6567  -0.6401  -0.6005
 -0.5682  -0.5557  -0.5378  -0.4970  -0.4922  -0.4838  -0.4749  -0.4571
 -0.4568  -0.4474  -0.4428  -0.4355  -0.4281  -0.4177  -0.4117  -0.4015
 -0.4006  -0.3830  -0.3791  -0.3751  -0.3689  -0.3665  -0.3598  -0.3571
 -0.2850  -0.2776  -0.2749  -0.2724  -0.2663  -0.2580

          Ground-State Mulliken Net Atomic Charges

     Atom                 Charge (a.u.)
  ----------------------------------------
      1 C                    -0.366075
      2 C                     0.963093
      3 C                    -0.506214
      4 C                    -0.512457
      5 C                     0.965124
      6 C                    -0.364935
      7 C                     0.334361
      8 C                    -1.045015
      9 O                    -0.253418
     10 C                     0.131417
     11 C                     0.119207
     12 C                    -0.508770
     13 C                    -0.513207
     14 C                     0.118536
     15 C                     0.135518
     16 C                    -1.039804
     17 O                    -0.253045
     18 C                     0.330493
     19 H                     0.180006
     20 H                     0.179964
     21 H                     0.171605
     22 H                     0.178489
     23 H                     0.177804
     24 H                     0.179779
     25 H                     0.179898
     26 H                     0.171387
     27 H                     0.202398
     28 H                     0.220876
     29 H                     0.220621
     30 H                     0.202363
  ----------------------------------------
  Sum of atomic charges =     0.000000

                    Cartesian Multipole Moments
 -----------------------------------------------------------------
    Charge (ESU x 10^10)
                 0.0000
    Dipole Moment (Debye)
         X      -0.8157      Y       0.2915      Z      -0.0252
       Tot       0.8666
    Quadrupole Moments (Debye-Ang)
        XX     -78.9512     XY     -12.9005     YY    -110.0263
        XZ       1.0678     YZ      -0.2937     ZZ    -107.2582

 Total job time:  54.03s(wall), 364.97s(cpu)
        *  Thank you very much for using Q-Chem.  Have a nice day.  *
