 Q-Chem 5.4, Q-Chem, Inc., Pleasanton, CA (2021)
 Q-Chem 5.4.0 for Intel X86 EM64T Linux

User input:
--------------------------------------------------------------
$molecule
-2 1
O                  3.3774340000      2.7276870000      1.0856770000
C                  3.0325240000      1.5449610000      0.7611040000
C                  4.0027210000      0.4863900000      0.5244950000
C                  5.3829330000      0.7704080000      0.6521740000
C                  6.3519320000     -0.1899390000      0.4375440000
C                  5.9642560000     -1.5080800000      0.0761230000
C                  4.6251940000     -1.8158260000     -0.0547420000
C                  3.6079350000     -0.8532600000      0.1604370000
C                  2.2166310000     -1.2446830000      0.0058750000
O                  1.8716330000     -2.4299380000     -0.3149110000
C                  1.2489350000     -0.1852470000      0.2408260000
C                 -0.1320620000     -0.4768290000      0.0918240000
C                 -1.1205730000      0.4685570000      0.3081940000
C                 -0.7177370000      1.7872860000      0.6849750000
C                  0.6170330000      2.0972370000      0.8181200000
C                  1.6436170000      1.1481750000      0.6022280000
N                 -2.5160230000      0.1832540000      0.2182740000
C                 -2.9365650000     -1.2062470000      0.1074020000
C                 -4.3724610000     -1.3813910000      0.6537070000
C                 -5.2325010000     -0.1211910000      0.4296150000
C                 -4.7450140000      0.6073530000     -0.8210630000
C                 -3.2946500000      1.0940200000     -0.6366780000
H                  5.6458970000      1.7867020000      0.9281710000
H                  7.4055570000      0.0596470000      0.5436480000
H                  6.7209580000     -2.2709310000     -0.0954400000
H                  4.2985540000     -2.8137650000     -0.3291470000
H                 -0.3623900000     -1.4917440000     -0.2072000000
H                 -1.4697570000      2.5428720000      0.8880450000
H                  0.9274790000      3.0957060000      1.1089010000
H                 -2.8780560000     -1.5722390000     -0.9352890000
H                 -2.2468550000     -1.8208690000      0.6842340000
H                 -4.3348720000     -1.6183080000      1.7222120000
H                 -4.8364700000     -2.2426320000      0.1548710000
H                 -6.2949960000     -0.3822920000      0.3494230000
H                 -5.1385570000      0.5487140000      1.2910560000
H                 -4.8077070000     -0.0753520000     -1.6774740000
H                 -5.3882400000      1.4588840000     -1.0683210000
H                 -3.3035280000      2.0847010000     -0.1740120000
H                 -2.8122090000      1.2082080000     -1.6249910000
$end

$rem
BASIS  =  6-311++G(d,p)
GUI  =  2
JOB_TYPE  =  SP
METHOD  =  B3LYP
SCF_CONVERGENCE  = 8
SOLVENT_METHOD = sm12
$end

$smx
solvent dimethylformamide
charges CM5
$end

--------------------------------------------------------------

             Standard Nuclear Orientation (Angstroms)
    I     Atom           X                Y                Z
 ----------------------------------------------------------------
    1      O       3.3774340000     2.7276870000     1.0856770000
    2      C       3.0325240000     1.5449610000     0.7611040000
    3      C       4.0027210000     0.4863900000     0.5244950000
    4      C       5.3829330000     0.7704080000     0.6521740000
    5      C       6.3519320000    -0.1899390000     0.4375440000
    6      C       5.9642560000    -1.5080800000     0.0761230000
    7      C       4.6251940000    -1.8158260000    -0.0547420000
    8      C       3.6079350000    -0.8532600000     0.1604370000
    9      C       2.2166310000    -1.2446830000     0.0058750000
   10      O       1.8716330000    -2.4299380000    -0.3149110000
   11      C       1.2489350000    -0.1852470000     0.2408260000
   12      C      -0.1320620000    -0.4768290000     0.0918240000
   13      C      -1.1205730000     0.4685570000     0.3081940000
   14      C      -0.7177370000     1.7872860000     0.6849750000
   15      C       0.6170330000     2.0972370000     0.8181200000
   16      C       1.6436170000     1.1481750000     0.6022280000
   17      N      -2.5160230000     0.1832540000     0.2182740000
   18      C      -2.9365650000    -1.2062470000     0.1074020000
   19      C      -4.3724610000    -1.3813910000     0.6537070000
   20      C      -5.2325010000    -0.1211910000     0.4296150000
   21      C      -4.7450140000     0.6073530000    -0.8210630000
   22      C      -3.2946500000     1.0940200000    -0.6366780000
   23      H       5.6458970000     1.7867020000     0.9281710000
   24      H       7.4055570000     0.0596470000     0.5436480000
   25      H       6.7209580000    -2.2709310000    -0.0954400000
   26      H       4.2985540000    -2.8137650000    -0.3291470000
   27      H      -0.3623900000    -1.4917440000    -0.2072000000
   28      H      -1.4697570000     2.5428720000     0.8880450000
   29      H       0.9274790000     3.0957060000     1.1089010000
   30      H      -2.8780560000    -1.5722390000    -0.9352890000
   31      H      -2.2468550000    -1.8208690000     0.6842340000
   32      H      -4.3348720000    -1.6183080000     1.7222120000
   33      H      -4.8364700000    -2.2426320000     0.1548710000
   34      H      -6.2949960000    -0.3822920000     0.3494230000
   35      H      -5.1385570000     0.5487140000     1.2910560000
   36      H      -4.8077070000    -0.0753520000    -1.6774740000
   37      H      -5.3882400000     1.4588840000    -1.0683210000
   38      H      -3.3035280000     2.0847010000    -0.1740120000
   39      H      -2.8122090000     1.2082080000    -1.6249910000
 ----------------------------------------------------------------

   18    -939.6655957984      4.79e-09  Convergence criterion met
 Total energy in the final basis set =     -939.9621224682

                    Orbital Energies (a.u.)
 --------------------------------------------------------------

 Alpha MOs
 -- Occupied --
-19.0307 -19.0252 -14.3202 -10.2019 -10.2015 -10.1976 -10.1881 -10.1824
-10.1733 -10.1724 -10.1710 -10.1701 -10.1698 -10.1687 -10.1677 -10.1677
-10.1670 -10.1553 -10.1501 -10.1497 -10.1493 -10.1483  -0.9526  -0.9469
 -0.9418  -0.8435  -0.8389  -0.8003  -0.7643  -0.7590  -0.7418  -0.7360
 -0.7215  -0.6602  -0.6481  -0.6333  -0.6198  -0.5986  -0.5790  -0.5466
 -0.5446  -0.5254  -0.5206  -0.4964  -0.4850  -0.4700  -0.4544  -0.4468
 -0.4397  -0.4321  -0.4205  -0.4192  -0.4177  -0.4083  -0.3952  -0.3923
 -0.3883  -0.3813  -0.3797  -0.3660  -0.3641  -0.3591  -0.3439  -0.3411
 -0.3359  -0.3343  -0.3236  -0.3208  -0.3158  -0.3130  -0.2629  -0.2502
 -0.2390  -0.2351  -0.2083  -0.2018  -0.1991  -0.1121

          Ground-State Mulliken Net Atomic Charges

     Atom                 Charge (a.u.)
  ----------------------------------------
      1 O                    -0.290514
      2 C                    -3.815011
      3 C                    -2.074557
      4 C                    -0.335137
      5 C                     1.457320
      6 C                     1.418122
      7 C                    -0.302244
      8 C                    -1.563034
      9 C                    -2.576900
     10 O                    -0.299640
     11 C                     0.409624
     12 C                     0.345797
     13 C                     1.722901
     14 C                     1.222372
     15 C                     0.075357
     16 C                    -3.499861
     17 N                     0.585118
     18 C                    -0.343567
     19 C                     1.101987
     20 C                     0.377842
     21 C                     1.023495
     22 C                     0.082985
     23 H                     0.112092
     24 H                     0.382086
     25 H                     0.391310
     26 H                     0.102882
     27 H                    -0.083945
     28 H                     0.363589
     29 H                     0.189226
     30 H                     0.129642
     31 H                     0.105716
     32 H                     0.226217
     33 H                     0.235728
     34 H                     0.384765
     35 H                     0.039637
     36 H                     0.166665
     37 H                     0.331111
     38 H                     0.094845
     39 H                     0.105977
  ----------------------------------------
  Sum of atomic charges =    -2.000000

                    Cartesian Multipole Moments
 -----------------------------------------------------------------
    Charge (ESU x 10^10)
                -9.6064
    Dipole Moment (Debye)
         X     -28.0115      Y      -1.0416      Z      -4.0531
       Tot      28.3223
    Quadrupole Moments (Debye-Ang)
        XX    -248.3546     XY      -6.8184     YY    -186.9465
        XZ     -10.5719     YZ     -12.2482     ZZ    -150.8372

 Total job time:  1791.75s(wall), 13816.72s(cpu)
        *  Thank you very much for using Q-Chem.  Have a nice day.  *
