 Gaussian 16, Revision A.03,
 Gaussian 16:  ES64L-G16RevA.03 25-Dec-2016

 --------------------------------------
 #P UB3LYP/6-311++G(d,p) nosym opt freq
 --------------------------------------

 -------
 Reduced
 -------
 Symbolic Z-matrix:
 Charge = -2 Multiplicity = 1

 SCF Done:  E(UB3LYP) =  -939.695522036     A.U. after   50 cycles
 SCF Done:  E(UB3LYP) =  -939.695670355     A.U. after   26 cycles
 SCF Done:  E(UB3LYP) =  -939.695726470     A.U. after   26 cycles
 SCF Done:  E(UB3LYP) =  -939.695747287     A.U. after   25 cycles
 SCF Done:  E(UB3LYP) =  -939.695758656     A.U. after   27 cycles
 SCF Done:  E(UB3LYP) =  -939.695764670     A.U. after   24 cycles
 SCF Done:  E(UB3LYP) =  -939.695768181     A.U. after   23 cycles
 SCF Done:  E(UB3LYP) =  -939.695772187     A.U. after   24 cycles
 SCF Done:  E(UB3LYP) =  -939.695773574     A.U. after   24 cycles
 SCF Done:  E(UB3LYP) =  -939.695773739     A.U. after   25 cycles
 Optimization completed.
    -- Stationary point found.
 Normal termination of Gaussian 16 at Sun Jan  7 10:17:14 2024.

 ----------------------------------------------------------------------
 #P Geom=AllCheck Guess=TCheck SCRF=Check GenChk UB3LYP/6-311++G(d,p) F
 req
 ----------------------------------------------------------------------

 Structure from the checkpoint file:  "213-an.chk"
 -------
 Reduced
 -------
 Charge = -2 Multiplicity = 1

                          Input orientation:
 ---------------------------------------------------------------------
 Center     Atomic      Atomic             Coordinates (Angstroms)
 Number     Number       Type             X           Y           Z
 ---------------------------------------------------------------------
      1          8           0        3.377434    2.727687    1.085677
      2          6           0        3.032524    1.544961    0.761104
      3          6           0        4.002721    0.486390    0.524495
      4          6           0        5.382933    0.770408    0.652174
      5          6           0        6.351932   -0.189939    0.437544
      6          6           0        5.964256   -1.508080    0.076123
      7          6           0        4.625194   -1.815826   -0.054742
      8          6           0        3.607935   -0.853260    0.160437
      9          6           0        2.216631   -1.244683    0.005875
     10          8           0        1.871633   -2.429938   -0.314911
     11          6           0        1.248935   -0.185247    0.240826
     12          6           0       -0.132062   -0.476829    0.091824
     13          6           0       -1.120573    0.468557    0.308194
     14          6           0       -0.717737    1.787286    0.684975
     15          6           0        0.617033    2.097237    0.818120
     16          6           0        1.643617    1.148175    0.602228
     17          7           0       -2.516023    0.183254    0.218274
     18          6           0       -2.936565   -1.206247    0.107402
     19          6           0       -4.372461   -1.381391    0.653707
     20          6           0       -5.232501   -0.121191    0.429615
     21          6           0       -4.745014    0.607353   -0.821063
     22          6           0       -3.294650    1.094020   -0.636678
     23          1           0        5.645897    1.786702    0.928171
     24          1           0        7.405557    0.059647    0.543648
     25          1           0        6.720958   -2.270931   -0.095440
     26          1           0        4.298554   -2.813765   -0.329147
     27          1           0       -0.362390   -1.491744   -0.207200
     28          1           0       -1.469757    2.542872    0.888045
     29          1           0        0.927479    3.095706    1.108901
     30          1           0       -2.878056   -1.572239   -0.935289
     31          1           0       -2.246855   -1.820869    0.684234
     32          1           0       -4.334872   -1.618308    1.722212
     33          1           0       -4.836470   -2.242632    0.154871
     34          1           0       -6.294996   -0.382292    0.349423
     35          1           0       -5.138557    0.548714    1.291056
     36          1           0       -4.807707   -0.075352   -1.677474
     37          1           0       -5.388240    1.458884   -1.068321
     38          1           0       -3.303528    2.084701   -0.174012
     39          1           0       -2.812209    1.208208   -1.624991
 ---------------------------------------------------------------------

 SCF Done:  E(UB3LYP) =  -939.695773739     A.U. after    4 cycles

 Alpha  occ. eigenvalues --  -18.82242 -18.82015 -14.12544 -10.01705 -10.01193
 Alpha  occ. eigenvalues --   -9.99655  -9.99440  -9.99411  -9.99191  -9.97950
 Alpha  occ. eigenvalues --   -9.97656  -9.95938  -9.95873  -9.95312  -9.95159
 Alpha  occ. eigenvalues --   -9.95086  -9.94991  -9.94304  -9.93909  -9.93867
 Alpha  occ. eigenvalues --   -9.93827  -9.93436  -0.74802  -0.74210  -0.73787
 Alpha  occ. eigenvalues --   -0.63608  -0.62870  -0.60861  -0.57716  -0.55291
 Alpha  occ. eigenvalues --   -0.52681  -0.52437  -0.51328  -0.46756  -0.45695
 Alpha  occ. eigenvalues --   -0.43198  -0.41233  -0.39243  -0.36904  -0.35432
 Alpha  occ. eigenvalues --   -0.33658  -0.32466  -0.31488  -0.30884  -0.28261
 Alpha  occ. eigenvalues --   -0.27545  -0.24629  -0.24401  -0.24021  -0.23554
 Alpha  occ. eigenvalues --   -0.22827  -0.22180  -0.20858  -0.20339  -0.19702
 Alpha  occ. eigenvalues --   -0.18832  -0.18374  -0.17806  -0.17400  -0.17067
 Alpha  occ. eigenvalues --   -0.16388  -0.15474  -0.14799  -0.14410  -0.14026
 Alpha  occ. eigenvalues --   -0.12560  -0.12143  -0.12106  -0.10726  -0.10033
 Alpha  occ. eigenvalues --   -0.05598  -0.03356  -0.02297  -0.02055   0.00239
 Alpha  occ. eigenvalues --    0.00551   0.01000   0.10789
 Alpha virt. eigenvalues --    0.11962   0.13997   0.14555   0.14646   0.15490
 Alpha virt. eigenvalues --    0.16395   0.16942   0.17350   0.17459   0.17804
 Alpha virt. eigenvalues --    0.18586   0.18654   0.19518   0.20101   0.20141

  Beta  occ. eigenvalues --  -18.82242 -18.82015 -14.12544 -10.01705 -10.01193
  Beta  occ. eigenvalues --   -9.99655  -9.99440  -9.99411  -9.99191  -9.97950
  Beta  occ. eigenvalues --   -9.97656  -9.95938  -9.95873  -9.95312  -9.95159
  Beta  occ. eigenvalues --   -9.95086  -9.94991  -9.94304  -9.93909  -9.93867
  Beta  occ. eigenvalues --   -9.93827  -9.93436  -0.74802  -0.74210  -0.73787
  Beta  occ. eigenvalues --   -0.63608  -0.62870  -0.60861  -0.57716  -0.55291
  Beta  occ. eigenvalues --   -0.52681  -0.52437  -0.51328  -0.46756  -0.45695
  Beta  occ. eigenvalues --   -0.43198  -0.41233  -0.39243  -0.36904  -0.35432
  Beta  occ. eigenvalues --   -0.33658  -0.32466  -0.31488  -0.30884  -0.28261
  Beta  occ. eigenvalues --   -0.27545  -0.24629  -0.24401  -0.24021  -0.23554
  Beta  occ. eigenvalues --   -0.22827  -0.22180  -0.20858  -0.20339  -0.19702
  Beta  occ. eigenvalues --   -0.18832  -0.18374  -0.17806  -0.17400  -0.17067
  Beta  occ. eigenvalues --   -0.16388  -0.15474  -0.14799  -0.14410  -0.14026
  Beta  occ. eigenvalues --   -0.12560  -0.12143  -0.12106  -0.10726  -0.10033
  Beta  occ. eigenvalues --   -0.05598  -0.03356  -0.02297  -0.02055   0.00239
  Beta  occ. eigenvalues --    0.00551   0.01000   0.10789
  Beta virt. eigenvalues --    0.11962   0.13997   0.14555   0.14646   0.15490
  Beta virt. eigenvalues --    0.16395   0.16942   0.17350   0.17459   0.17804
  Beta virt. eigenvalues --    0.18586   0.18654   0.19518   0.20101   0.20141

 Mulliken charges and spin densities:
               1          2
     1  O   -0.450634   0.000000
     2  C   -1.063690   0.000000
     3  C    0.219035  -0.000000
     4  C    0.006403   0.000000
     5  C   -0.417955  -0.000000
     6  C   -0.477242  -0.000000
     7  C   -0.018583   0.000000
     8  C    0.551685  -0.000000
     9  C   -0.851767  -0.000000
    10  O   -0.454696   0.000000
    11  C    0.495985   0.000000
    12  C   -0.040118   0.000000
    13  C    0.296464   0.000000
    14  C   -0.352044  -0.000000
    15  C   -0.135010  -0.000000
    16  C    0.025354  -0.000000
    17  N    0.231673  -0.000000
    18  C   -0.235392   0.000000
    19  C    0.681475   0.000000
    20  C    0.349389   0.000000
    21  C   -0.391744  -0.000000
    22  C    0.380498   0.000000
    23  H    0.136469  -0.000000
    24  H    0.087816   0.000000
    25  H    0.088912  -0.000000
    26  H    0.137482  -0.000000
    27  H    0.085976  -0.000000
    28  H    0.022190  -0.000000
    29  H    0.166133   0.000000
    30  H    0.006210  -0.000000
    31  H    0.259536   0.000000
    32  H    0.001274  -0.000000
    33  H   -0.065825  -0.000000
    34  H   -1.182487  -0.000000
    35  H    0.280774   0.000000
    36  H    0.023097  -0.000000
    37  H   -0.682644  -0.000000
    38  H    0.145372   0.000000
    39  H    0.140627   0.000000
 Sum of Mulliken charges =  -2.00000  -0.00000

 Dipole moment (field-independent basis, Debye):
    X=             -4.3730    Y=             -0.5535    Z=             -1.8729  Tot=              4.7893
 Quadrupole moment (field-independent basis, Debye-Ang):
   XX=           -342.7132   YY=           -189.8163   ZZ=           -157.6824
   XY=             -9.0450   XZ=            -15.1247   YZ=             -8.4235

  Exact polarizability:2804.419 -51.5951065.000  94.987-100.425 717.868
 Approx polarizability:******** 119.5831123.3851654.578 -15.370 798.039

                      1                      2                      3
                      A                      A                      A
 Frequencies --     26.9191                34.3945                57.9369
 Red. masses --      3.2899                 4.4387                 3.3430
 Frc consts  --      0.0014                 0.0031                 0.0066
 IR Inten    --      2.3860                 0.5903                 4.4358

                      4                      5                      6
                      A                      A                      A
 Frequencies --     75.3667                96.8574               124.6597
 Red. masses --      4.3056                 3.5057                 3.4426
 Frc consts  --      0.0144                 0.0194                 0.0315
 IR Inten    --      3.0541                 4.1580                 0.1427

                      7                      8                      9
                      A                      A                      A
 Frequencies --    146.8978               165.8411               203.3700
 Red. masses --      3.5946                 7.4378                 4.0767
 Frc consts  --      0.0457                 0.1205                 0.0993
 IR Inten    --      1.5846                 6.8980                 1.2212

                     10                     11                     12
                      A                      A                      A
 Frequencies --    213.9524               231.1650               244.9196
 Red. masses --      5.0840                 4.2392                 1.9890
 Frc consts  --      0.1371                 0.1335                 0.0703
 IR Inten    --      1.2035                 1.8822                31.6226

                     13                     14                     15
                      A                      A                      A
 Frequencies --    282.7406               294.5981               353.1043
 Red. masses --      3.7200                 3.9543                 4.0655
 Frc consts  --      0.1752                 0.2022                 0.2987
 IR Inten    --      5.6114                 2.7248                 8.4126

                     16                     17                     18
                      A                      A                      A
 Frequencies --    370.8819               402.9525               416.1473
 Red. masses --     10.7860                 6.1975                 4.6740
 Frc consts  --      0.8741                 0.5929                 0.4769
 IR Inten    --     10.5019               121.4749                 1.5142

                     19                     20                     21
                      A                      A                      A
 Frequencies --    429.9054               440.5914               454.9721
 Red. masses --      5.8951                 4.2401                 3.9778
 Frc consts  --      0.6419                 0.4849                 0.4851
 IR Inten    --     15.0388                 6.7804                 4.3173

                     22                     23                     24
                      A                      A                      A
 Frequencies --    476.0598               481.0103               493.9577
 Red. masses --      3.1630                 4.7342                 5.4036
 Frc consts  --      0.4224                 0.6454                 0.7768
 IR Inten    --      1.5342               300.4641               220.9168

                     25                     26                     27
                      A                      A                      A
 Frequencies --    527.2376               553.3460               625.8323
 Red. masses --      3.3463                 4.2995                 4.1182
 Frc consts  --      0.5481                 0.7756                 0.9503
 IR Inten    --     37.0918                 4.6471                33.5947

                     28                     29                     30
                      A                      A                      A
 Frequencies --    638.2423               654.5609               679.0990
 Red. masses --      6.8215                 3.3246                 4.7962
 Frc consts  --      1.6372                 0.8392                 1.3032
 IR Inten    --      1.1417                11.4478                13.0078

                     31                     32                     33
                      A                      A                      A
 Frequencies --    694.5468               698.7971               727.5481
 Red. masses --      2.5512                 3.4919                 3.8080
 Frc consts  --      0.7251                 1.0046                 1.1876
 IR Inten    --     48.3536                14.6689                 1.4673

                     34                     35                     36
                      A                      A                      A
 Frequencies --    734.5544               759.0824               780.6328
 Red. masses --      3.0796                 2.3653                 1.8588
 Frc consts  --      0.9790                 0.8030                 0.6674
 IR Inten    --     29.0071                 8.4864                 4.3900

                     37                     38                     39
                      A                      A                      A
 Frequencies --    783.2794               803.5699               821.7645
 Red. masses --      1.3901                 1.6661                 3.9482
 Frc consts  --      0.5025                 0.6339                 1.5709
 IR Inten    --     63.9821                 4.6648                18.3639

                     40                     41                     42
                      A                      A                      A
 Frequencies --    833.7424               850.2562               876.2035
 Red. masses --      2.9018                 3.2410                 1.5822
 Frc consts  --      1.1885                 1.3805                 0.7157
 IR Inten    --      1.3107                55.5769                95.8162

                     43                     44                     45
                      A                      A                      A
 Frequencies --    903.9690               916.6470               924.5101
 Red. masses --      1.9321                 3.4927                 1.9433
 Frc consts  --      0.9302                 1.7291                 0.9786
 IR Inten    --      7.2169                 7.0592                31.4401

                     46                     47                     48
                      A                      A                      A
 Frequencies --    937.4082               961.8467               965.4140
 Red. masses --      5.3111                 1.2432                 1.5472
 Frc consts  --      2.7497                 0.6776                 0.8496
 IR Inten    --     17.6428                 0.3691                43.7937

                     49                     50                     51
                      A                      A                      A
 Frequencies --    965.7456               978.6945               990.7811
 Red. masses --      1.5084                 1.3242                 2.4924
 Frc consts  --      0.8289                 0.7473                 1.4415
 IR Inten    --     56.0476                10.4862               284.6699

                     52                     53                     54
                      A                      A                      A
 Frequencies --   1019.0681              1027.9441              1052.5431
 Red. masses --      2.0378                 2.1148                 1.9224
 Frc consts  --      1.2469                 1.3166                 1.2548
 IR Inten    --    310.7373                42.2303                 6.2230

                     55                     56                     57
                      A                      A                      A
 Frequencies --   1086.2439              1098.7490              1111.1349
 Red. masses --      1.7709                 2.2823                 1.8923
 Frc consts  --      1.2311                 1.6234                 1.3765
 IR Inten    --     26.7067                28.8862                57.7580

                     58                     59                     60
                      A                      A                      A
 Frequencies --   1128.5316              1136.2465              1142.1145
 Red. masses --      1.8801                 1.8022                 2.0704
 Frc consts  --      1.4108                 1.3709                 1.5912
 IR Inten    --     99.0234                24.5258                89.2873

                     61                     62                     63
                      A                      A                      A
 Frequencies --   1165.3805              1188.6090              1192.3505
 Red. masses --      2.2652                 1.3600                 1.8620
 Frc consts  --      1.8125                 1.1320                 1.5597
 IR Inten    --    331.9321                81.1443               184.6255

                     64                     65                     66
                      A                      A                      A
 Frequencies --   1213.8916              1218.5544              1234.4052
 Red. masses --      2.2579                 1.7887                 1.9226
 Frc consts  --      1.9602                 1.5648                 1.7261
 IR Inten    --    148.5887                 7.2757                30.8560

                     67                     68                     69
                      A                      A                      A
 Frequencies --   1246.2866              1258.1636              1280.8109
 Red. masses --      1.8999                 1.9273                 1.3024
 Frc consts  --      1.7386                 1.7975                 1.2588
 IR Inten    --    187.7485                72.4390               107.1660

                     70                     71                     72
                      A                      A                      A
 Frequencies --   1293.3680              1325.1637              1336.9358
 Red. masses --      1.2148                 1.7710                 2.5074
 Frc consts  --      1.1973                 1.8323                 2.6405
 IR Inten    --     21.7758               107.8959               213.5621

                     73                     74                     75
                      A                      A                      A
 Frequencies --   1344.5542              1350.6804              1354.5734
 Red. masses --      5.3177                 1.3995                 1.4279
 Frc consts  --      5.6640                 1.5043                 1.5437
 IR Inten    --    335.9939                29.1435                36.6872

                     76                     77                     78
                      A                      A                      A
 Frequencies --   1362.9357              1377.9767              1385.6021
 Red. masses --      4.2982                 1.4028                 1.4405
 Frc consts  --      4.7043                 1.5694                 1.6295
 IR Inten    --    437.3656                 3.2657                34.5404

                     79                     80                     81
                      A                      A                      A
 Frequencies --   1394.8874              1408.8460              1455.9761
 Red. masses --      2.8631                 1.4468                 3.2181
 Frc consts  --      3.2822                 1.6920                 4.0194
 IR Inten    --    365.7245                14.0543               257.8692

                     82                     83                     84
                      A                      A                      A
 Frequencies --   1465.5020              1476.2662              1479.7878
 Red. masses --      3.3115                 1.1059                 6.2915
 Frc consts  --      4.1903                 1.4201                 8.1171
 IR Inten    --    328.7301               301.8024              2390.5536

                     85                     86                     87
                      A                      A                      A
 Frequencies --   1485.4154              1488.2399              1493.8693
 Red. masses --      1.2158                 2.0374                 2.0668
 Frc consts  --      1.5805                 2.6587                 2.7175
 IR Inten    --    406.6577               286.7451               162.9926

                     88                     89                     90
                      A                      A                      A
 Frequencies --   1498.9529              1508.5354              1519.6957
 Red. masses --      1.8455                 1.0975                 1.1089
 Frc consts  --      2.4431                 1.4716                 1.5089
 IR Inten    --     88.3018                 4.5057                19.1625

                     91                     92                     93
                      A                      A                      A
 Frequencies --   1532.4425              1570.9567              1593.6630
 Red. masses --      5.3318                 7.5142                 5.5198
 Frc consts  --      7.3772                10.9260                 8.2597
 IR Inten    --     78.3767              4384.9712               101.9539

                     94                     95                     96
                      A                      A                      A
 Frequencies --   1609.0432              2884.2797              2899.3000
 Red. masses --      6.0045                 1.0749                 1.0751
 Frc consts  --      9.1593                 5.2688                 5.3244
 IR Inten    --     46.9683                25.6634                66.5978

                     97                     98                     99
                      A                      A                      A
 Frequencies --   2988.0231              2996.3021              3000.6743
 Red. masses --      1.0651                 1.0651                 1.0651
 Frc consts  --      5.6029                 5.6338                 5.6504
 IR Inten    --     24.8865                30.3986                 8.2811

                    100                    101                    102
                      A                      A                      A
 Frequencies --   3023.8190              3028.2387              3041.5497
 Red. masses --      1.0931                 1.0954                 1.0953
 Frc consts  --      5.8887                 5.9186                 5.9702
 IR Inten    --      7.8619                24.7193                32.7633

                    103                    104                    105
                      A                      A                      A
 Frequencies --   3046.9249              3102.3313              3102.6736
 Red. masses --      1.0950                 1.0867                 1.0830
 Frc consts  --      5.9896                 6.1619                 6.1427
 IR Inten    --     69.6221                 3.7163                30.6902

                    106                    107                    108
                      A                      A                      A
 Frequencies --   3125.1429              3145.0461              3162.4826
 Red. masses --      1.0906                 1.0852                 1.0906
 Frc consts  --      6.2753                 6.3243                 6.4266
 IR Inten    --    298.7286                 7.1238                47.6284

                    109                    110                    111
                      A                      A                      A
 Frequencies --   3165.4637              3168.1012              3190.0167
 Red. masses --      1.0917                 1.0927                 1.0878
 Frc consts  --      6.4449                 6.4615                 6.5221
 IR Inten    --    204.9971                47.6371                19.5681

 - Thermochemistry -
 -------------------
 Temperature   298.150 Kelvin.  Pressure   1.00000 Atm.
 Atom     1 has atomic number  8 and mass  15.99491

 Molecular mass:   291.12593 amu.
 Principal axes and moments of inertia in atomic units:
                           1         2         3
     Eigenvalues --  2295.96704********************
           X            0.99902   0.01005  -0.04318
           Y           -0.01782   0.98286  -0.18349
           Z            0.04060   0.18408   0.98207
 This molecule is an asymmetric top.
 Rotational symmetry number  1.
 Warning -- assumption of classical behavior for rotation
           may cause significant error
 Rotational temperatures (Kelvin)      0.03772     0.00649     0.00567
 Rotational constants (GHZ):           0.78605     0.13532     0.11819
 Zero-point vibrational energy     819990.9 (Joules/Mol)
                                  195.98254 (Kcal/Mol)
 Warning -- explicit consideration of  26 degrees of freedom as
           vibrations may cause significant error
 Vibrational temperatures:     38.73    49.49    83.36   108.44   139.36
          (Kelvin)            179.36   211.35   238.61   292.60   307.83
                              332.59   352.38   406.80   423.86   508.04
                              533.62   579.76   598.74   618.54   633.91
                              654.60   684.94   692.07   710.70   758.58
                              796.14   900.43   918.29   941.77   977.07
                              999.30  1005.41  1046.78  1056.86  1092.15
                             1123.16  1126.96  1156.16  1182.34  1199.57
                             1223.33  1260.66  1300.61  1318.85  1330.16
                             1348.72  1383.88  1389.02  1389.49  1408.12
                             1425.51  1466.21  1478.98  1514.37  1562.86
                             1580.85  1598.68  1623.71  1634.81  1643.25
                             1676.72  1710.14  1715.53  1746.52  1753.23
                             1776.03  1793.13  1810.22  1842.80  1860.87
                             1906.62  1923.55  1934.51  1943.33  1948.93
                             1960.96  1982.60  1993.57  2006.93  2027.02
                             2094.82  2108.53  2124.02  2129.08  2137.18
                             2141.25  2149.34  2156.66  2170.45  2186.50
                             2204.84  2260.26  2292.93  2315.05  4149.84
                             4171.45  4299.10  4311.01  4317.30  4350.60
                             4356.96  4376.11  4383.85  4463.56  4464.06
                             4496.38  4525.02  4550.11  4554.40  4558.19
                             4589.72

 Zero-point correction=                           0.312318 (Hartree/Particle)
 Thermal correction to Energy=                    0.329899
 Thermal correction to Enthalpy=                  0.330843
 Thermal correction to Gibbs Free Energy=         0.266038
 Sum of electronic and zero-point Energies=           -939.383456
 Sum of electronic and thermal Energies=              -939.365875
 Sum of electronic and thermal Enthalpies=            -939.364931
 Sum of electronic and thermal Free Energies=         -939.429735

                     E (Thermal)             CV                S
                      KCal/Mol        Cal/Mol-Kelvin    Cal/Mol-Kelvin
 Total                  207.014             71.092            136.392
 Electronic               0.000              0.000              0.000
 Translational            0.889              2.981             42.903
 Rotational               0.889              2.981             34.502
 Vibrational            205.237             65.130             58.987
 Vibration     1          0.593              1.984              6.044
 Vibration     2          0.594              1.983              5.558
 Vibration     3          0.596              1.974              4.526
 Vibration     4          0.599              1.965              4.008
 Vibration     5          0.603              1.951              3.517
 Vibration     6          0.610              1.928              3.027
 Vibration     7          0.617              1.906              2.712
 Vibration     8          0.624              1.884              2.482
 Vibration     9          0.639              1.835              2.102
 Vibration    10          0.644              1.820              2.010
 Vibration    11          0.653              1.793              1.870
 Vibration    12          0.660              1.771              1.767
 Vibration    13          0.682              1.706              1.517
 Vibration    14          0.689              1.684              1.447
 Vibration    15          0.729              1.569              1.152
 Vibration    16          0.743              1.532              1.076
 Vibration    17          0.768              1.464              0.952
 Vibration    18          0.779              1.435              0.905
 Vibration    19          0.791              1.405              0.859
 Vibration    20          0.800              1.382              0.825
 Vibration    21          0.813              1.350              0.781
 Vibration    22          0.833              1.303              0.721
 Vibration    23          0.837              1.292              0.707
 Vibration    24          0.850              1.263              0.673
 Vibration    25          0.882              1.190              0.593
 Vibration    26          0.909              1.132              0.537

                           ! Non-Optimized Parameters !
 Normal termination of Gaussian 16 at Sun Jan  7 15:03:52 2024.
