 Gaussian 16, Revision A.03,
 Gaussian 16:  ES64L-G16RevA.03 25-Dec-2016

 --------------------------------------
 #P UB3LYP/6-311++G(d,p) nosym opt freq
 --------------------------------------

 --------
 Oxidized
 --------
 Symbolic Z-matrix:
 Charge = -1 Multiplicity = 1

 SCF Done:  E(UB3LYP) =  -1158.58385853     A.U. after   23 cycles
 SCF Done:  E(UB3LYP) =  -1158.62417376     A.U. after   16 cycles
 SCF Done:  E(UB3LYP) =  -1158.63842548     A.U. after   15 cycles
 SCF Done:  E(UB3LYP) =  -1158.63908354     A.U. after   14 cycles
 SCF Done:  E(UB3LYP) =  -1158.63912978     A.U. after   13 cycles
 SCF Done:  E(UB3LYP) =  -1158.63912963     A.U. after   13 cycles
 SCF Done:  E(UB3LYP) =  -1158.63914905     A.U. after   12 cycles
 SCF Done:  E(UB3LYP) =  -1158.63914951     A.U. after   11 cycles
 Optimization completed.
    -- Stationary point found.
 Normal termination of Gaussian 16 at Sat Jan  6 02:08:00 2024.

 ----------------------------------------------------------------------
 #P Geom=AllCheck Guess=TCheck SCRF=Check GenChk UB3LYP/6-311++G(d,p) F
 req
 ----------------------------------------------------------------------

 Structure from the checkpoint file:  "326.chk"
 --------
 Oxidized
 --------
 Charge = -1 Multiplicity = 1

                          Input orientation:
 ---------------------------------------------------------------------
 Center     Atomic      Atomic             Coordinates (Angstroms)
 Number     Number       Type             X           Y           Z
 ---------------------------------------------------------------------
      1          6           0       -1.858056    2.796792   -0.793358
      2          6           0       -2.930783    1.963763   -0.500447
      3          6           0       -2.684050    0.660927   -0.066608
      4          6           0       -0.545733    2.335345   -0.655198
      5          6           0       -0.287595    1.015546   -0.215719
      6          6           0       -1.382074    0.188248    0.075559
      7          6           0        0.571451    3.259971   -0.979868
      8          6           0        2.020823    2.716337   -0.814990
      9          6           0        2.166096    1.342347   -0.356160
     10          6           0        1.107670    0.551356   -0.077605
     11          8           0        0.395213    4.400233   -1.359432
     12          8           0        2.960287    3.448885   -1.073037
     13          1           0       -2.009094    3.814716   -1.132870
     14          1           0       -3.948390    2.323610   -0.608298
     15          1           0       -3.512832    0.000446    0.165341
     16          1           0       -1.205343   -0.822687    0.412456
     17          1           0        3.170555    0.952945   -0.238148
     18         16           0        1.444130   -1.168777    0.495044
     19          8           0        2.916364   -1.279399    0.513065
     20          8           0        0.765064   -2.001554   -0.529212
     21          8           0        0.795647   -1.210447    1.829754
 ---------------------------------------------------------------------

 SCF Done:  E(UB3LYP) =  -1158.63914951     A.U. after    2 cycles

 Alpha  occ. eigenvalues --  -88.91567 -19.03831 -19.02645 -18.95847 -18.95832
 Alpha  occ. eigenvalues --  -18.95831 -10.17842 -10.16782 -10.11582 -10.11531
 Alpha  occ. eigenvalues --  -10.10649 -10.10462 -10.10401 -10.10372 -10.09221
 Alpha  occ. eigenvalues --  -10.08141  -7.97417  -5.93670  -5.93659  -5.93648
 Alpha  occ. eigenvalues --   -0.97939  -0.97578  -0.94588  -0.84412  -0.84003
 Alpha  occ. eigenvalues --   -0.79362  -0.73281  -0.68360  -0.66146  -0.60876
 Alpha  occ. eigenvalues --   -0.54586  -0.52873  -0.50994  -0.46047  -0.43596
 Alpha  occ. eigenvalues --   -0.42358  -0.39449  -0.37939  -0.36488  -0.35464
 Alpha  occ. eigenvalues --   -0.35215  -0.34966  -0.34138  -0.31992  -0.31778
 Alpha  occ. eigenvalues --   -0.30853  -0.29882  -0.28402  -0.28062  -0.27474
 Alpha  occ. eigenvalues --   -0.23135  -0.20709  -0.19851  -0.19763  -0.18264
 Alpha  occ. eigenvalues --   -0.16870  -0.16633  -0.16451  -0.14865  -0.14616
 Alpha  occ. eigenvalues --   -0.12044
 Alpha virt. eigenvalues --   -0.02618   0.04455   0.06508   0.07606   0.08895
 Alpha virt. eigenvalues --    0.10338   0.11317   0.11769   0.13402   0.13485
 Alpha virt. eigenvalues --    0.13699   0.15575   0.16096   0.16396   0.16681

  Beta  occ. eigenvalues --  -88.91567 -19.03831 -19.02645 -18.95847 -18.95832
  Beta  occ. eigenvalues --  -18.95831 -10.17842 -10.16782 -10.11582 -10.11531
  Beta  occ. eigenvalues --  -10.10649 -10.10462 -10.10401 -10.10372 -10.09221
  Beta  occ. eigenvalues --  -10.08141  -7.97417  -5.93670  -5.93659  -5.93648
  Beta  occ. eigenvalues --   -0.97939  -0.97578  -0.94588  -0.84412  -0.84003
  Beta  occ. eigenvalues --   -0.79362  -0.73281  -0.68360  -0.66146  -0.60876
  Beta  occ. eigenvalues --   -0.54586  -0.52873  -0.50994  -0.46047  -0.43596
  Beta  occ. eigenvalues --   -0.42358  -0.39449  -0.37939  -0.36488  -0.35464
  Beta  occ. eigenvalues --   -0.35215  -0.34966  -0.34138  -0.31992  -0.31778
  Beta  occ. eigenvalues --   -0.30853  -0.29882  -0.28402  -0.28062  -0.27474
  Beta  occ. eigenvalues --   -0.23135  -0.20709  -0.19851  -0.19763  -0.18264
  Beta  occ. eigenvalues --   -0.16870  -0.16633  -0.16451  -0.14865  -0.14616
  Beta  occ. eigenvalues --   -0.12044
  Beta virt. eigenvalues --   -0.02618   0.04455   0.06508   0.07606   0.08895
  Beta virt. eigenvalues --    0.10338   0.11317   0.11769   0.13402   0.13485
  Beta virt. eigenvalues --    0.13699   0.15575   0.16096   0.16396   0.16681

 Mulliken charges and spin densities:
               1          2
     1  C    0.124198   0.000000
     2  C   -0.415320  -0.000000
     3  C   -0.880283   0.000000
     4  C    0.454592  -0.000000
     5  C    1.221876   0.000000
     6  C   -0.575549  -0.000000
     7  C   -0.561298   0.000000
     8  C   -0.046278  -0.000000
     9  C    0.042398  -0.000000
    10  C   -0.515124   0.000000
    11  O   -0.233194   0.000000
    12  O   -0.258643  -0.000000
    13  H    0.161432   0.000000
    14  H    0.148017  -0.000000
    15  H    0.160675   0.000000
    16  H    0.179039  -0.000000
    17  H    0.274224  -0.000000
    18  S    0.429989   0.000000
    19  O   -0.171845   0.000000
    20  O   -0.269470  -0.000000
    21  O   -0.269437  -0.000000
 Sum of Mulliken charges =  -1.00000  -0.00000

 Dipole moment (field-independent basis, Debye):
    X=             -9.5688    Y=             -0.2002    Z=             -0.3943  Tot=              9.5790
 Quadrupole moment (field-independent basis, Debye-Ang):
   XX=           -120.7106   YY=           -145.7244   ZZ=           -112.9319
   XY=             -4.6277   XZ=              0.5453   YZ=             12.4510

  Exact polarizability: 202.582  10.799 185.881  -5.050 -32.475 100.433
 Approx polarizability: 337.871  51.032 312.044 -19.507 -55.412 167.604

                      1                      2                      3
                      A                      A                      A
 Frequencies --     32.0700                53.3025                81.0581
 Red. masses --     11.3353                13.9326                 5.9778
 Frc consts  --      0.0069                 0.0233                 0.0231
 IR Inten    --      1.4442                 2.1290                 0.6735

                      4                      5                      6
                      A                      A                      A
 Frequencies --    128.5936               151.7474               188.1411
 Red. masses --      6.0790                 9.5413                 4.9111
 Frc consts  --      0.0592                 0.1294                 0.1024
 IR Inten    --      3.3183                 9.7664                 1.4575

                      7                      8                      9
                      A                      A                      A
 Frequencies --    225.4449               230.1319               271.4963
 Red. masses --     10.7613                13.6749                 8.8229
 Frc consts  --      0.3223                 0.4267                 0.3832
 IR Inten    --      2.1244                 3.6873                 0.5080

                     10                     11                     12
                      A                      A                      A
 Frequencies --    324.1464               365.4412               404.5013
 Red. masses --      9.0543                14.7746                 3.7338
 Frc consts  --      0.5605                 1.1625                 0.3600
 IR Inten    --      4.7263                 3.8146                 0.4716

                     13                     14                     15
                      A                      A                      A
 Frequencies --    423.0771               430.5255               471.3976
 Red. masses --     10.1071                 5.9861                 8.1684
 Frc consts  --      1.0659                 0.6537                 1.0694
 IR Inten    --      1.5793                 0.1853                 2.6155

                     16                     17                     18
                      A                      A                      A
 Frequencies --    496.9783               498.4388               521.5015
 Red. masses --     15.7394                 8.0739                 5.1169
 Frc consts  --      2.2904                 1.1818                 0.8199
 IR Inten    --     15.5970                16.8845                21.1429

                     19                     20                     21
                      A                      A                      A
 Frequencies --    579.9862               625.3706               628.5340
 Red. masses --     10.7780                 4.8153                11.1333
 Frc consts  --      2.1361                 1.1096                 2.5914
 IR Inten    --     56.4828                 0.2301               114.2362

                     22                     23                     24
                      A                      A                      A
 Frequencies --    667.5185               700.4536               715.6684
 Red. masses --      6.2517                 6.7293                 3.5425
 Frc consts  --      1.6412                 1.9453                 1.0690
 IR Inten    --      6.9575                 0.5164                 3.3085

                     25                     26                     27
                      A                      A                      A
 Frequencies --    770.0256               776.9702               816.8589
 Red. masses --      1.4626                 6.0684                 3.9248
 Frc consts  --      0.5110                 2.1584                 1.5430
 IR Inten    --     47.8395                 0.3224                 0.0068

                     28                     29                     30
                      A                      A                      A
 Frequencies --    890.5708               908.7298               917.5517
 Red. masses --      1.4623                 1.3929                 6.4227
 Frc consts  --      0.6833                 0.6777                 3.1859
 IR Inten    --      1.6646                17.8490                 9.6173

                     31                     32                     33
                      A                      A                      A
 Frequencies --    972.3672               977.8343               990.0371
 Red. masses --      7.9004                 1.3973                14.9183
 Frc consts  --      4.4011                 0.7872                 8.6154
 IR Inten    --     23.2298                 0.3889               154.1317

                     34                     35                     36
                      A                      A                      A
 Frequencies --    990.7185              1066.2168              1121.8837
 Red. masses --      1.3194                 2.2100                 2.1902
 Frc consts  --      0.7630                 1.4803                 1.6242
 IR Inten    --      0.5771                 5.8426                 0.7142

                     37                     38                     39
                      A                      A                      A
 Frequencies --   1161.6438              1170.9170              1189.2288
 Red. masses --     18.5131                 2.0215                 1.2620
 Frc consts  --     14.7189                 1.6330                 1.0516
 IR Inten    --    271.6463                48.8563                 0.7533

                     40                     41                     42
                      A                      A                      A
 Frequencies --   1191.2742              1222.6733              1264.8969
 Red. masses --      8.2576                 3.0710                 3.1193
 Frc consts  --      6.9045                 2.7049                 2.9405
 IR Inten    --    199.4340                23.7234                97.1435

                     43                     44                     45
                      A                      A                      A
 Frequencies --   1311.9163              1334.2447              1344.8810
 Red. masses --      1.8717                 3.5203                 3.0688
 Frc consts  --      1.8980                 3.6923                 3.2703
 IR Inten    --     78.7700                 6.1972                36.9411

                     46                     47                     48
                      A                      A                      A
 Frequencies --   1473.7395              1512.8912              1594.9193
 Red. masses --      2.3020                 2.3921                 6.1477
 Frc consts  --      2.9457                 3.2259                 9.2138
 IR Inten    --     15.7296                 5.0175                18.0357

                     49                     50                     51
                      A                      A                      A
 Frequencies --   1627.4325              1629.0751              1712.3617
 Red. masses --      7.8759                 5.4504                12.5160
 Frc consts  --     12.2902                 8.5224                21.6226
 IR Inten    --     90.3223                31.0394               529.0667

                     52                     53                     54
                      A                      A                      A
 Frequencies --   1749.7912              3156.2904              3173.6592
 Red. masses --     12.7041                 1.0861                 1.0925
 Frc consts  --     22.9175                 6.3746                 6.4832
 IR Inten    --     68.6994                 7.1372                28.7695

                     55                     56                     57
                      A                      A                      A
 Frequencies --   3189.7945              3191.4588              3228.6355
 Red. masses --      1.0936                 1.0903                 1.0932
 Frc consts  --      6.5560                 6.5428                 6.7138
 IR Inten    --     15.2702                 5.0900                 7.9766

 - Thermochemistry -
 -------------------
 Temperature   298.150 Kelvin.  Pressure   1.00000 Atm.
 Atom     1 has atomic number  6 and mass  12.00000

 Molecular mass:   236.98577 amu.
 Principal axes and moments of inertia in atomic units:
                           1         2         3
     Eigenvalues --  2603.677114040.629016290.65412
           X           -0.36224   0.93201   0.01196
           Y            0.88507   0.33991   0.31798
           Z           -0.29229  -0.12576   0.94802
 This molecule is an asymmetric top.
 Rotational symmetry number  1.
 Warning -- assumption of classical behavior for rotation
           may cause significant error
 Rotational temperatures (Kelvin)      0.03327     0.02144     0.01377
 Rotational constants (GHZ):           0.69315     0.44665     0.28689
 Zero-point vibrational energy     351983.3 (Joules/Mol)
                                   84.12603 (Kcal/Mol)
 Warning -- explicit consideration of  19 degrees of freedom as
           vibrations may cause significant error
 Vibrational temperatures:     46.14    76.69   116.62   185.02   218.33
          (Kelvin)            270.69   324.36   331.11   390.62   466.37
                              525.79   581.99   608.71   619.43   678.24
                              715.04   717.14   750.32   834.47   899.77
                              904.32   960.41  1007.80  1029.69  1107.90
                             1117.89  1175.28  1281.33  1307.46  1320.15
                             1399.02  1406.89  1424.44  1425.42  1534.05
                             1614.14  1671.35  1684.69  1711.04  1713.98
                             1759.15  1819.90  1887.55  1919.68  1934.98
                             2120.38  2176.71  2294.73  2341.51  2343.88
                             2463.71  2517.56  4541.20  4566.19  4589.40
                             4591.80  4645.29

 Zero-point correction=                           0.134063 (Hartree/Particle)
 Thermal correction to Energy=                    0.146855
 Thermal correction to Enthalpy=                  0.147799
 Thermal correction to Gibbs Free Energy=         0.093495
 Sum of electronic and zero-point Energies=          -1158.505086
 Sum of electronic and thermal Energies=             -1158.492294
 Sum of electronic and thermal Enthalpies=           -1158.491350
 Sum of electronic and thermal Free Energies=        -1158.545655

                     E (Thermal)             CV                S
                      KCal/Mol        Cal/Mol-Kelvin    Cal/Mol-Kelvin
 Total                   92.153             48.570            114.294
 Electronic               0.000              0.000              0.000
 Translational            0.889              2.981             42.290
 Rotational               0.889              2.981             32.559
 Vibrational             90.376             42.608             39.445
 Vibration     1          0.594              1.983              5.697
 Vibration     2          0.596              1.976              4.691
 Vibration     3          0.600              1.962              3.865
 Vibration     4          0.611              1.925              2.967
 Vibration     5          0.619              1.901              2.650
 Vibration     6          0.633              1.856              2.246
 Vibration     7          0.650              1.802              1.915
 Vibration     8          0.652              1.795              1.878
 Vibration     9          0.675              1.726              1.587
 Vibration    10          0.709              1.627              1.289
 Vibration    11          0.739              1.543              1.099
 Vibration    12          0.770              1.460              0.946
 Vibration    13          0.785              1.420              0.882
 Vibration    14          0.792              1.404              0.857
 Vibration    15          0.828              1.314              0.734
 Vibration    16          0.853              1.257              0.666
 Vibration    17          0.854              1.253              0.662
 Vibration    18          0.876              1.202              0.606
 Vibration    19          0.937              1.075              0.485

 Optimization completed.
    -- Stationary point found.
 Normal termination of Gaussian 16 at Sat Jan  6 02:40:13 2024.
