 Q-Chem 5.4, Q-Chem, Inc., Pleasanton, CA (2021)
 Q-Chem 5.4.0 for Intel X86 EM64T Linux

User input:
--------------------------------------------------------------
$molecule
0 1
C                  4.8263720000     -3.0159550000      0.2902800000
C                  5.7306640000     -2.2040530000     -0.3836380000
C                  5.2952060000     -1.0278070000     -1.0009820000
C                  3.4758190000     -2.6580240000      0.3526560000
C                  3.0376240000     -1.4741980000     -0.2687100000
C                  3.9553140000     -0.6636770000     -0.9442640000
C                  2.5241520000     -3.5335050000      1.0749730000
C                  1.1127350000     -3.1425550000      1.1221910000
C                  0.6680590000     -1.9435050000      0.4936390000
C                  1.6120490000     -1.0738990000     -0.2175570000
C                  0.2003870000     -3.9701320000      1.8023540000
C                 -1.1629490000     -3.5799420000      1.8360420000
C                 -0.6882790000     -1.5828650000      0.5554340000
C                 -1.5958100000     -2.4212950000      1.2380200000
O                  2.9221870000     -4.5736080000      1.6241590000
O                  1.2315200000     -0.0286050000     -0.7638700000
O                  0.5678570000     -5.0899870000      2.4210810000
H                  5.1438910000     -3.9307180000      0.7744350000
H                  6.7765200000     -2.4846950000     -0.4304080000
H                  6.0038200000     -0.3975010000     -1.5257000000
H                  1.5456620000     -5.1917350000      2.2716390000
O                 -1.1822390000     -0.4740050000     -0.0025480000
H                 -2.6400320000     -2.1391880000      1.2854400000
H                 -0.4277760000     -0.0055950000     -0.4365490000
H                  3.5978740000      0.2429740000     -1.4158250000
S                 -2.4066770000     -4.6287490000      2.6187060000
O                 -3.6452750000     -3.8728450000      2.6356710000
O                 -2.3587950000     -5.9651570000      2.0475400000
O                 -1.8395460000     -4.6681120000      4.1434930000
C                 -1.5215420000     -5.9524530000      4.7432170000
H                 -0.8495670000     -6.5158000000      4.0990640000
H                 -2.4361780000     -6.5131420000      4.9360600000
H                 -1.0313760000     -5.6940540000      5.6796090000
$end
$rem
MAX_SCF_CYCLES=200
BASIS  =  6-311++G(d,p)
GUI  =  2
JOB_TYPE  =  SP
METHOD  =  B3LYP
SOLVENT_METHOD = PCM
$end
$pcm
theory = CPCM
$end
$solvent
dielectric 37.219
opticaldielectric 1.43
$end

--------------------------------------------------------------

             Standard Nuclear Orientation (Angstroms)
    I     Atom           X                Y                Z
 ----------------------------------------------------------------
    1      C       4.8263720000    -3.0159550000     0.2902800000
    2      C       5.7306640000    -2.2040530000    -0.3836380000
    3      C       5.2952060000    -1.0278070000    -1.0009820000
    4      C       3.4758190000    -2.6580240000     0.3526560000
    5      C       3.0376240000    -1.4741980000    -0.2687100000
    6      C       3.9553140000    -0.6636770000    -0.9442640000
    7      C       2.5241520000    -3.5335050000     1.0749730000
    8      C       1.1127350000    -3.1425550000     1.1221910000
    9      C       0.6680590000    -1.9435050000     0.4936390000
   10      C       1.6120490000    -1.0738990000    -0.2175570000
   11      C       0.2003870000    -3.9701320000     1.8023540000
   12      C      -1.1629490000    -3.5799420000     1.8360420000
   13      C      -0.6882790000    -1.5828650000     0.5554340000
   14      C      -1.5958100000    -2.4212950000     1.2380200000
   15      O       2.9221870000    -4.5736080000     1.6241590000
   16      O       1.2315200000    -0.0286050000    -0.7638700000
   17      O       0.5678570000    -5.0899870000     2.4210810000
   18      H       5.1438910000    -3.9307180000     0.7744350000
   19      H       6.7765200000    -2.4846950000    -0.4304080000
   20      H       6.0038200000    -0.3975010000    -1.5257000000
   21      H       1.5456620000    -5.1917350000     2.2716390000
   22      O      -1.1822390000    -0.4740050000    -0.0025480000
   23      H      -2.6400320000    -2.1391880000     1.2854400000
   24      H      -0.4277760000    -0.0055950000    -0.4365490000
   25      H       3.5978740000     0.2429740000    -1.4158250000
   26      S      -2.4066770000    -4.6287490000     2.6187060000
   27      O      -3.6452750000    -3.8728450000     2.6356710000
   28      O      -2.3587950000    -5.9651570000     2.0475400000
   29      O      -1.8395460000    -4.6681120000     4.1434930000
   30      C      -1.5215420000    -5.9524530000     4.7432170000
   31      H      -0.8495670000    -6.5158000000     4.0990640000
   32      H      -2.4361780000    -6.5131420000     4.9360600000
   33      H      -1.0313760000    -5.6940540000     5.6796090000
 ----------------------------------------------------------------

    9   -1502.6845363256      5.02e-06  Convergence criterion met
 Total energy in the final basis set =    -1502.6845363256

                    Orbital Energies (a.u.)
 --------------------------------------------------------------

 Alpha MOs
 -- Occupied --
-89.1070 -19.1906 -19.1764 -19.1722 -19.1531 -19.1520 -19.1480 -19.1476
-10.2980 -10.2973 -10.2900 -10.2799 -10.2487 -10.2327 -10.2252 -10.2248
-10.2246 -10.2161 -10.2155 -10.2023 -10.2022 -10.2015 -10.2010  -8.1672
 -6.1308  -6.1293  -6.1280  -1.1760  -1.1082  -1.1018  -1.0718  -1.0701
 -1.0632  -1.0491  -0.9083  -0.8915  -0.8394  -0.7938  -0.7877  -0.7806
 -0.7552  -0.7163  -0.6930  -0.6725  -0.6501  -0.6381  -0.6100  -0.5817
 -0.5793  -0.5714  -0.5562  -0.5472  -0.5293  -0.5116  -0.5102  -0.5010
 -0.4862  -0.4828  -0.4761  -0.4683  -0.4629  -0.4592  -0.4569  -0.4563
 -0.4467  -0.4464  -0.4387  -0.4169  -0.4147  -0.4120  -0.3980  -0.3883
 -0.3844  -0.3752  -0.3733  -0.3655  -0.3545  -0.3463  -0.3446  -0.3296
 -0.3076  -0.3075  -0.2911  -0.2862  -0.2841  -0.2470

          Ground-State Mulliken Net Atomic Charges

     Atom                 Charge (a.u.)
  ----------------------------------------
      1 C                    -0.018193
      2 C                    -0.384196
      3 C                    -0.467448
      4 C                     0.420099
      5 C                     0.079426
      6 C                     0.034794
      7 C                    -0.497714
      8 C                     0.605270
      9 C                     0.788788
     10 C                    -0.339645
     11 C                    -0.431542
     12 C                    -0.558024
     13 C                    -0.393741
     14 C                    -0.204667
     15 O                    -0.315237
     16 O                    -0.320801
     17 O                    -0.327892
     18 H                     0.201846
     19 H                     0.232625
     20 H                     0.229052
     21 H                     0.432614
     22 O                    -0.320333
     23 H                     0.286667
     24 H                     0.369488
     25 H                     0.208114
     26 S                     1.002862
     27 O                    -0.137605
     28 O                    -0.234931
     29 O                    -0.191280
     30 C                    -0.351641
     31 H                     0.202779
     32 H                     0.214538
     33 H                     0.185920
  ----------------------------------------
  Sum of atomic charges =    -0.000006

                    Cartesian Multipole Moments
 -----------------------------------------------------------------
    Charge (ESU x 10^10)
                -0.0000
    Dipole Moment (Debye)
         X       9.0285      Y       1.5067      Z      -0.4650
       Tot       9.1652
    Quadrupole Moments (Debye-Ang)
        XX    -124.5984     XY     -22.0860     YY    -154.1082
        XZ       1.1789     YZ      -5.7837     ZZ    -129.5513

 Total job time:  87.43s(wall), 634.83s(cpu)
        *  Thank you very much for using Q-Chem.  Have a nice day.  *
