 Gaussian 16, Revision A.03,
 Gaussian 16:  ES64L-G16RevA.03 25-Dec-2016

 --------------------------------------
 #P UB3LYP/6-311++G(d,p) nosym opt freq
 --------------------------------------

 --------
 Oxidized
 --------
 Symbolic Z-matrix:
 Charge =  0 Multiplicity = 1

 SCF Done:  E(UB3LYP) =  -1502.66310912     A.U. after   17 cycles
 SCF Done:  E(UB3LYP) =  -1502.66310912     A.U. after    9 cycles
 SCF Done:  E(UB3LYP) =  -1502.66310916     A.U. after   10 cycles
 Optimization completed.
    -- Stationary point found.
 Normal termination of Gaussian 16 at Sun Jan  7 05:10:39 2024.

 ----------------------------------------------------------------------
 #P Geom=AllCheck Guess=TCheck SCRF=Check GenChk UB3LYP/6-311++G(d,p) F
 req
 ----------------------------------------------------------------------

 Structure from the checkpoint file:  "195.chk"
 --------
 Oxidized
 --------
 Charge =  0 Multiplicity = 1

                          Input orientation:
 ---------------------------------------------------------------------
 Center     Atomic      Atomic             Coordinates (Angstroms)
 Number     Number       Type             X           Y           Z
 ---------------------------------------------------------------------
      1          6           0        4.826372   -3.015955    0.290280
      2          6           0        5.730664   -2.204053   -0.383638
      3          6           0        5.295206   -1.027807   -1.000982
      4          6           0        3.475819   -2.658024    0.352656
      5          6           0        3.037624   -1.474198   -0.268710
      6          6           0        3.955314   -0.663677   -0.944264
      7          6           0        2.524152   -3.533505    1.074973
      8          6           0        1.112735   -3.142555    1.122191
      9          6           0        0.668059   -1.943505    0.493639
     10          6           0        1.612049   -1.073899   -0.217557
     11          6           0        0.200387   -3.970132    1.802354
     12          6           0       -1.162949   -3.579942    1.836042
     13          6           0       -0.688279   -1.582865    0.555434
     14          6           0       -1.595810   -2.421295    1.238020
     15          8           0        2.922187   -4.573608    1.624159
     16          8           0        1.231520   -0.028605   -0.763870
     17          8           0        0.567857   -5.089987    2.421081
     18          1           0        5.143891   -3.930718    0.774435
     19          1           0        6.776520   -2.484695   -0.430408
     20          1           0        6.003820   -0.397501   -1.525700
     21          1           0        1.545662   -5.191735    2.271639
     22          8           0       -1.182239   -0.474005   -0.002548
     23          1           0       -2.640032   -2.139188    1.285440
     24          1           0       -0.427776   -0.005595   -0.436549
     25          1           0        3.597874    0.242974   -1.415825
     26         16           0       -2.406677   -4.628749    2.618706
     27          8           0       -3.645275   -3.872845    2.635671
     28          8           0       -2.358795   -5.965157    2.047540
     29          8           0       -1.839546   -4.668112    4.143493
     30          6           0       -1.521542   -5.952453    4.743217
     31          1           0       -0.849567   -6.515800    4.099064
     32          1           0       -2.436178   -6.513142    4.936060
     33          1           0       -1.031376   -5.694054    5.679609
 ---------------------------------------------------------------------

 SCF Done:  E(UB3LYP) =  -1502.66310916     A.U. after    2 cycles

 Alpha  occ. eigenvalues --  -89.09546 -19.18440 -19.18068 -19.17552 -19.15492
 Alpha  occ. eigenvalues --  -19.15374 -19.13910 -19.13772 -10.30531 -10.30413
 Alpha  occ. eigenvalues --  -10.29494 -10.28561 -10.25061 -10.23920 -10.23124
 Alpha  occ. eigenvalues --  -10.23078 -10.22958 -10.22912 -10.22899 -10.21988
 Alpha  occ. eigenvalues --  -10.21936 -10.21771 -10.21755  -8.15561  -6.11933
 Alpha  occ. eigenvalues --   -6.11742  -6.11664  -1.16435  -1.11301  -1.10615
 Alpha  occ. eigenvalues --   -1.07791  -1.07563  -1.05542  -1.03425  -0.91688
 Alpha  occ. eigenvalues --   -0.90259  -0.84651  -0.80364  -0.80066  -0.78901
 Alpha  occ. eigenvalues --   -0.75647  -0.72240  -0.70065  -0.68388  -0.65790
 Alpha  occ. eigenvalues --   -0.63959  -0.62111  -0.59100  -0.58380  -0.57540
 Alpha  occ. eigenvalues --   -0.56148  -0.54665  -0.52438  -0.52228  -0.51251
 Alpha  occ. eigenvalues --   -0.50011  -0.49176  -0.48946  -0.48112  -0.47580
 Alpha  occ. eigenvalues --   -0.47171  -0.47036  -0.46660  -0.45325  -0.45192
 Alpha  occ. eigenvalues --   -0.45129  -0.44599  -0.42028  -0.41882  -0.40619
 Alpha  occ. eigenvalues --   -0.40522  -0.40175  -0.39687  -0.38864  -0.36575
 Alpha  occ. eigenvalues --   -0.35874  -0.34751  -0.34199  -0.33380  -0.32262
 Alpha  occ. eigenvalues --   -0.31362  -0.30991  -0.29907  -0.29844  -0.29707
 Alpha  occ. eigenvalues --   -0.25213
 Alpha virt. eigenvalues --   -0.14267  -0.09110  -0.06624  -0.03736  -0.01904
 Alpha virt. eigenvalues --   -0.00775  -0.00107   0.00208   0.00561   0.00881
 Alpha virt. eigenvalues --    0.01871   0.02046   0.02330   0.02791   0.03060

  Beta  occ. eigenvalues --  -89.09546 -19.18440 -19.18068 -19.17552 -19.15492
  Beta  occ. eigenvalues --  -19.15374 -19.13910 -19.13772 -10.30531 -10.30413
  Beta  occ. eigenvalues --  -10.29494 -10.28561 -10.25061 -10.23920 -10.23124
  Beta  occ. eigenvalues --  -10.23078 -10.22958 -10.22912 -10.22899 -10.21988
  Beta  occ. eigenvalues --  -10.21936 -10.21771 -10.21755  -8.15561  -6.11933
  Beta  occ. eigenvalues --   -6.11742  -6.11664  -1.16435  -1.11301  -1.10615
  Beta  occ. eigenvalues --   -1.07791  -1.07563  -1.05542  -1.03425  -0.91688
  Beta  occ. eigenvalues --   -0.90259  -0.84651  -0.80364  -0.80066  -0.78901
  Beta  occ. eigenvalues --   -0.75647  -0.72240  -0.70065  -0.68388  -0.65790
  Beta  occ. eigenvalues --   -0.63959  -0.62111  -0.59100  -0.58380  -0.57540
  Beta  occ. eigenvalues --   -0.56148  -0.54665  -0.52438  -0.52228  -0.51251
  Beta  occ. eigenvalues --   -0.50011  -0.49176  -0.48946  -0.48112  -0.47580
  Beta  occ. eigenvalues --   -0.47171  -0.47036  -0.46660  -0.45325  -0.45192
  Beta  occ. eigenvalues --   -0.45129  -0.44599  -0.42028  -0.41882  -0.40619
  Beta  occ. eigenvalues --   -0.40522  -0.40175  -0.39687  -0.38864  -0.36575
  Beta  occ. eigenvalues --   -0.35874  -0.34751  -0.34199  -0.33380  -0.32262
  Beta  occ. eigenvalues --   -0.31362  -0.30991  -0.29907  -0.29844  -0.29707
  Beta  occ. eigenvalues --   -0.25213
  Beta virt. eigenvalues --   -0.14267  -0.09110  -0.06624  -0.03736  -0.01904
  Beta virt. eigenvalues --   -0.00775  -0.00107   0.00208   0.00561   0.00881
  Beta virt. eigenvalues --    0.01871   0.02046   0.02330   0.02791   0.03060

 Mulliken charges and spin densities:
               1          2
     1  C   -0.018793  -0.000000
     2  C   -0.329537   0.000000
     3  C   -0.413502   0.000000
     4  C    0.445324   0.000000
     5  C    0.124724   0.000000
     6  C    0.031291  -0.000000
     7  C   -0.535399  -0.000000
     8  C    0.534466  -0.000000
     9  C    0.705541   0.000000
    10  C   -0.385411  -0.000000
    11  C   -0.476717  -0.000000
    12  C   -0.567773   0.000000
    13  C   -0.396382  -0.000000
    14  C   -0.157734  -0.000000
    15  O   -0.272896  -0.000000
    16  O   -0.278096  -0.000000
    17  O   -0.291716   0.000000
    18  H    0.185517   0.000000
    19  H    0.186979  -0.000000
    20  H    0.184022  -0.000000
    21  H    0.407568  -0.000000
    22  O   -0.272515  -0.000000
    23  H    0.274320  -0.000000
    24  H    0.343030   0.000000
    25  H    0.193650   0.000000
    26  S    0.919148  -0.000000
    27  O   -0.049071  -0.000000
    28  O   -0.149113   0.000000
    29  O   -0.155061   0.000000
    30  C   -0.334253  -0.000000
    31  H    0.197616   0.000000
    32  H    0.194061   0.000000
    33  H    0.156712  -0.000000
 Sum of Mulliken charges =  -0.00000  -0.00000

 Dipole moment (field-independent basis, Debye):
    X=              6.8653    Y=              1.0633    Z=             -0.2705  Tot=              6.9524
 Quadrupole moment (field-independent basis, Debye-Ang):
   XX=           -128.7518   YY=           -150.0680   ZZ=           -131.4100
   XY=            -16.8321   XZ=              0.7728   YZ=             -5.7275

  Exact polarizability: 322.828  22.547 219.041 -56.348 -71.020 172.556
 Approx polarizability: 502.157 -13.894 394.660 -55.816-115.364 270.811

                      1                      2                      3
                      A                      A                      A
 Frequencies --     31.9981                42.1806                72.1783
 Red. masses --      7.6087                 6.0421                 2.8003
 Frc consts  --      0.0046                 0.0063                 0.0086
 IR Inten    --      0.2693                 1.3085                 5.4655

                      4                      5                      6
                      A                      A                      A
 Frequencies --     76.8194                90.6375                98.7989
 Red. masses --      3.0546                 3.8986                 2.3436
 Frc consts  --      0.0106                 0.0189                 0.0135
 IR Inten    --      1.8020                 0.2204                 0.3340

                      7                      8                      9
                      A                      A                      A
 Frequencies --    124.2031               137.0211               157.6796
 Red. masses --      3.4400                 6.7854                 7.9792
 Frc consts  --      0.0313                 0.0751                 0.1169
 IR Inten    --      1.3238                 0.0261                 0.8626

                     10                     11                     12
                      A                      A                      A
 Frequencies --    177.7362               202.2805               229.6566
 Red. masses --      9.1823                 8.0136                 7.9447
 Frc consts  --      0.1709                 0.1932                 0.2469
 IR Inten    --      0.6554                 0.5938                 0.5497

                     13                     14                     15
                      A                      A                      A
 Frequencies --    232.5135               252.0981               280.8719
 Red. masses --      7.6307                 5.3256                 6.3280
 Frc consts  --      0.2431                 0.1994                 0.2941
 IR Inten    --      1.8595                 5.1369                 3.2707

                     16                     17                     18
                      A                      A                      A
 Frequencies --    292.0510               326.6563               350.7282
 Red. masses --      7.5951                 6.6385                 6.4322
 Frc consts  --      0.3817                 0.4174                 0.4662
 IR Inten    --      1.3882                 1.8645                 4.6973

                     19                     20                     21
                      A                      A                      A
 Frequencies --    388.8629               407.4556               424.6016
 Red. masses --      9.7170                11.3165                 7.7017
 Frc consts  --      0.8657                 1.1069                 0.8181
 IR Inten    --      3.4051                 1.6306                 5.6369

                     22                     23                     24
                      A                      A                      A
 Frequencies --    428.6622               434.6951               449.1829
 Red. masses --      3.4645                 8.9473                12.8235
 Frc consts  --      0.3751                 0.9961                 1.5244
 IR Inten    --      0.6137                25.7604                 0.5653

                     25                     26                     27
                      A                      A                      A
 Frequencies --    468.3348               485.6820               493.5936
 Red. masses --      6.0000                 9.5671                 8.2156
 Frc consts  --      0.7754                 1.3296                 1.1793
 IR Inten    --     11.2044                50.8860                 5.1446

                     28                     29                     30
                      A                      A                      A
 Frequencies --    513.2206               528.6127               554.2394
 Red. masses --      5.7634                 8.1379                 8.3326
 Frc consts  --      0.8944                 1.3398                 1.5081
 IR Inten    --      9.0987                23.2315                 1.4852

                     31                     32                     33
                      A                      A                      A
 Frequencies --    601.0002               632.3489               661.2829
 Red. masses --     10.6940                 5.5874                 6.6061
 Frc consts  --      2.2758                 1.3163                 1.7021
 IR Inten    --    113.4983                11.7029                 2.6728

                     34                     35                     36
                      A                      A                      A
 Frequencies --    677.2829               688.1992               701.6131
 Red. masses --      6.1512                 7.0374                 8.5218
 Frc consts  --      1.6624                 1.9638                 2.4716
 IR Inten    --     23.3346                40.3005               159.6761

                     37                     38                     39
                      A                      A                      A
 Frequencies --    719.4419               740.0719               746.0849
 Red. masses --      5.4402                 6.0528                 2.5828
 Frc consts  --      1.6590                 1.9532                 0.8471
 IR Inten    --     30.0123                 8.2376                56.7446

                     40                     41                     42
                      A                      A                      A
 Frequencies --    780.4676               798.9512               804.1045
 Red. masses --      4.6170                 1.1545                 7.8808
 Frc consts  --      1.6570                 0.4342                 3.0023
 IR Inten    --      6.2049               128.2095                11.5007

                     43                     44                     45
                      A                      A                      A
 Frequencies --    814.7290               833.0842               910.9834
 Red. masses --      1.7570                 1.2029                 7.8051
 Frc consts  --      0.6872                 0.4919                 3.8164
 IR Inten    --      9.8249                75.1202                31.1941

                     46                     47                     48
                      A                      A                      A
 Frequencies --    916.4280               931.3947               931.9749
 Red. masses --      1.3619                 5.0873                 1.5725
 Frc consts  --      0.6739                 2.6002                 0.8047
 IR Inten    --      0.0299                57.1748                14.2916

                     49                     50                     51
                      A                      A                      A
 Frequencies --    994.8305              1005.1026              1011.2908
 Red. masses --     11.1764                 1.3808                 6.0706
 Frc consts  --      6.5170                 0.8219                 3.6579
 IR Inten    --    249.9275                 1.5047                63.5143

                     52                     53                     54
                      A                      A                      A
 Frequencies --   1021.5557              1052.0409              1107.5067
 Red. masses --      1.3327                 2.4743                 3.7365
 Frc consts  --      0.8194                 1.6135                 2.7003
 IR Inten    --      0.0001                15.8618               163.9623

                     55                     56                     57
                      A                      A                      A
 Frequencies --   1115.9677              1135.2865              1167.0712
 Red. masses --      2.3272                 7.7111                 1.2405
 Frc consts  --      1.7076                 5.8557                 0.9955
 IR Inten    --      8.3571               137.8991                 0.3101

                     58                     59                     60
                      A                      A                      A
 Frequencies --   1179.6334              1184.4884              1186.3818
 Red. masses --      1.8295                 1.3337                 1.1631
 Frc consts  --      1.5000                 1.1025                 0.9645
 IR Inten    --     46.2122                 8.9492                22.5672

                     61                     62                     63
                      A                      A                      A
 Frequencies --   1233.9194              1251.5247              1289.1047
 Red. masses --      2.0768                 2.9095                 2.0489
 Frc consts  --      1.8630                 2.6850                 2.0061
 IR Inten    --     36.6942               341.4965                89.8155

                     64                     65                     66
                      A                      A                      A
 Frequencies --   1311.0085              1330.4644              1342.5185
 Red. masses --      7.0308                10.8090                 2.8283
 Frc consts  --      7.1197                11.2730                 3.0034
 IR Inten    --     98.9845               165.5692                96.3829

                     67                     68                     69
                      A                      A                      A
 Frequencies --   1351.9354              1370.1244              1392.3140
 Red. masses --      4.5205                 4.8532                 2.6453
 Frc consts  --      4.8680                 5.3679                 3.0213
 IR Inten    --    208.1964               260.7296               139.5830

                     70                     71                     72
                      A                      A                      A
 Frequencies --   1423.2529              1459.4982              1466.2523
 Red. masses --      7.5829                 3.0515                 1.2000
 Frc consts  --      9.0500                 3.8298                 1.5200
 IR Inten    --     17.8865               356.2428                29.8273

                     73                     74                     75
                      A                      A                      A
 Frequencies --   1486.0332              1486.6519              1494.8830
 Red. masses --      1.0735                 2.4644                 1.0584
 Frc consts  --      1.3967                 3.2090                 1.3935
 IR Inten    --      6.9134                 4.6359                14.3258

                     76                     77                     78
                      A                      A                      A
 Frequencies --   1504.4214              1509.3636              1600.0735
 Red. masses --      2.7371                 2.8566                 4.1921
 Frc consts  --      3.6499                 3.8343                 6.3236
 IR Inten    --     61.4696                11.3745                83.4257

                     79                     80                     81
                      A                      A                      A
 Frequencies --   1611.7625              1619.1155              1625.5240
 Red. masses --      5.7316                 5.1646                 3.7627
 Frc consts  --      8.7726                 7.9770                 5.8579
 IR Inten    --     16.4038               155.8281                83.2835

                     82                     83                     84
                      A                      A                      A
 Frequencies --   1668.2240              1682.8322              3059.7755
 Red. masses --      8.7680                 8.8276                 1.0285
 Frc consts  --     14.3766                14.7291                 5.6730
 IR Inten    --    268.1045                25.7278                43.1204

                     85                     86                     87
                      A                      A                      A
 Frequencies --   3146.8702              3165.1274              3174.8202
 Red. masses --      1.1071                 1.1083                 1.0874
 Frc consts  --      6.4594                 6.5417                 6.4577
 IR Inten    --     11.1520                 4.0925                 2.7327

                     88                     89                     90
                      A                      A                      A
 Frequencies --   3188.6834              3204.7179              3207.0891
 Red. masses --      1.0921                 1.0927                 1.0947
 Frc consts  --      6.5425                 6.6117                 6.6336
 IR Inten    --     10.6079                 0.7833                 3.3770

                     91                     92                     93
                      A                      A                      A
 Frequencies --   3207.7019              3210.3372              3328.2511
 Red. masses --      1.0748                 1.0866                 1.0678
 Frc consts  --      6.5156                 6.5979                 6.9689
 IR Inten    --    138.5176               116.0221               155.2993

 - Thermochemistry -
 -------------------
 Temperature   298.150 Kelvin.  Pressure   1.00000 Atm.
 Atom     1 has atomic number  6 and mass  12.00000

 Molecular mass:   334.01472 amu.
 Principal axes and moments of inertia in atomic units:
                           1         2         3
     Eigenvalues --  3402.47060********************
           X            0.79767  -0.58057   0.16326
           Y            0.41476   0.72463   0.55035
           Z           -0.43782  -0.37129   0.81881
 This molecule is an asymmetric top.
 Rotational symmetry number  1.
 Warning -- assumption of classical behavior for rotation
           may cause significant error
 Rotational temperatures (Kelvin)      0.02546     0.00716     0.00577
 Rotational constants (GHZ):           0.53042     0.14913     0.12025
 Zero-point vibrational energy     605358.4 (Joules/Mol)
                                  144.68414 (Kcal/Mol)
 Warning -- explicit consideration of  31 degrees of freedom as
           vibrations may cause significant error
 Vibrational temperatures:     46.04    60.69   103.85   110.53   130.41
          (Kelvin)            142.15   178.70   197.14   226.87   255.72
                              291.04   330.42   334.54   362.71   404.11
                              420.20   469.99   504.62   559.49   586.24
                              610.91   616.75   625.43   646.27   673.83
                              698.79   710.17   738.41   760.56   797.43
                              864.71   909.81   951.44   974.46   990.17
                             1009.46  1035.12  1064.80  1073.45  1122.92
                             1149.51  1156.93  1172.21  1198.62  1310.70
                             1318.54  1340.07  1340.90  1431.34  1446.12
                             1455.02  1469.79  1513.65  1593.46  1605.63
                             1633.42  1679.16  1697.23  1704.21  1706.94
                             1775.33  1800.66  1854.73  1886.25  1914.24
                             1931.58  1945.13  1971.30  2003.23  2047.74
                             2099.89  2109.61  2138.07  2138.96  2150.80
                             2164.53  2171.64  2302.15  2318.97  2329.55
                             2338.77  2400.20  2421.22  4402.33  4527.64
                             4553.91  4567.86  4587.80  4610.87  4614.29
                             4615.17  4618.96  4788.61

 Zero-point correction=                           0.230569 (Hartree/Particle)
 Thermal correction to Energy=                    0.249642
 Thermal correction to Enthalpy=                  0.250586
 Thermal correction to Gibbs Free Energy=         0.182747
 Sum of electronic and zero-point Energies=          -1502.432540
 Sum of electronic and thermal Energies=             -1502.413467
 Sum of electronic and thermal Enthalpies=           -1502.412523
 Sum of electronic and thermal Free Energies=        -1502.480362

                     E (Thermal)             CV                S
                      KCal/Mol        Cal/Mol-Kelvin    Cal/Mol-Kelvin
 Total                  156.653             73.566            142.779
 Electronic               0.000              0.000              0.000
 Translational            0.889              2.981             43.313
 Rotational               0.889              2.981             34.779
 Vibrational            154.875             67.604             64.687
 Vibration     1          0.594              1.983              5.702
 Vibration     2          0.595              1.980              5.154
 Vibration     3          0.598              1.967              4.093
 Vibration     4          0.599              1.965              3.971
 Vibration     5          0.602              1.956              3.646
 Vibration     6          0.604              1.950              3.478
 Vibration     7          0.610              1.929              3.034
 Vibration     8          0.614              1.916              2.845
 Vibration     9          0.621              1.894              2.577
 Vibration    10          0.628              1.870              2.352
 Vibration    11          0.639              1.837              2.112
 Vibration    12          0.652              1.796              1.882
 Vibration    13          0.653              1.791              1.859
 Vibration    14          0.664              1.759              1.716
 Vibration    15          0.681              1.709              1.528
 Vibration    16          0.687              1.689              1.462
 Vibration    17          0.710              1.622              1.277
 Vibration    18          0.728              1.574              1.163
 Vibration    19          0.757              1.494              1.005
 Vibration    20          0.772              1.454              0.936
 Vibration    21          0.787              1.417              0.876
 Vibration    22          0.790              1.408              0.863
 Vibration    23          0.795              1.395              0.843
 Vibration    24          0.808              1.363              0.798
 Vibration    25          0.826              1.320              0.742
 Vibration    26          0.842              1.282              0.695
 Vibration    27          0.849              1.264              0.674
 Vibration    28          0.868              1.221              0.626
 Vibration    29          0.884              1.187              0.590
 Vibration    30          0.910              1.130              0.535
 Vibration    31          0.959              1.030              0.448

                           ! Non-Optimized Parameters !
 Normal termination of Gaussian 16 at Sun Jan  7 06:13:03 2024.
