 Q-Chem 5.4, Q-Chem, Inc., Pleasanton, CA (2021)
 Q-Chem 5.4.0 for Intel X86 EM64T Linux

User input:
--------------------------------------------------------------
$molecule
0 1
C                  5.8582800000     -5.2294190000      1.1624730000
C                  6.7774480000     -5.1320140000      0.1218010000
C                  6.5988900000     -4.1640260000     -0.8788280000
C                  4.7625820000     -4.3706110000      1.2145560000
C                  4.5845240000     -3.4057400000      0.2171320000
C                  5.5036350000     -3.3068200000     -0.8251360000
C                  3.7870750000     -4.4878610000      2.3357600000
C                  2.6232710000     -3.5509800000      2.3596720000
C                  2.4502830000     -2.6154830000      1.3917030000
C                  3.4164530000     -2.4802640000      0.2601250000
O                  3.9375960000     -5.3272940000      3.2090250000
O                  3.2564900000     -1.6362350000     -0.6070890000
H                  5.9825790000     -5.9704590000      1.9409810000
H                  5.3526240000     -2.5557180000     -1.5891420000
Br                 8.2500700000     -6.3392050000      0.1158460000
Br                 7.8130780000     -3.9704660000     -2.3328340000
C                  1.6627100000     -3.7020780000      3.5055590000
C                  1.2860600000     -1.6650870000      1.3988220000
H                  1.9881160000     -4.4955770000      4.1752660000
H                  0.6573920000     -3.9390340000      3.1426800000
H                  1.5839000000     -2.7703020000      4.0743910000
H                  0.3371110000     -2.2103560000      1.3896960000
H                  1.3224530000     -1.0091720000      0.5313480000
H                  1.2907890000     -1.0500290000      2.3044450000
$end

$rem
BASIS  =  6-311++G(d,p)
GUI  =  2
JOB_TYPE  =  SP
METHOD  =  B3LYP
SCF_CONVERGENCE  = 8
SOLVENT_METHOD = sm12
$end

$smx
solvent dimethylformamide
charges CM5
$end

--------------------------------------------------------------

             Standard Nuclear Orientation (Angstroms)
    I     Atom           X                Y                Z
 ----------------------------------------------------------------
    1      C       5.8582800000    -5.2294190000     1.1624730000
    2      C       6.7774480000    -5.1320140000     0.1218010000
    3      C       6.5988900000    -4.1640260000    -0.8788280000
    4      C       4.7625820000    -4.3706110000     1.2145560000
    5      C       4.5845240000    -3.4057400000     0.2171320000
    6      C       5.5036350000    -3.3068200000    -0.8251360000
    7      C       3.7870750000    -4.4878610000     2.3357600000
    8      C       2.6232710000    -3.5509800000     2.3596720000
    9      C       2.4502830000    -2.6154830000     1.3917030000
   10      C       3.4164530000    -2.4802640000     0.2601250000
   11      O       3.9375960000    -5.3272940000     3.2090250000
   12      O       3.2564900000    -1.6362350000    -0.6070890000
   13      H       5.9825790000    -5.9704590000     1.9409810000
   14      H       5.3526240000    -2.5557180000    -1.5891420000
   15      Br      8.2500700000    -6.3392050000     0.1158460000
   16      Br      7.8130780000    -3.9704660000    -2.3328340000
   17      C       1.6627100000    -3.7020780000     3.5055590000
   18      C       1.2860600000    -1.6650870000     1.3988220000
   19      H       1.9881160000    -4.4955770000     4.1752660000
   20      H       0.6573920000    -3.9390340000     3.1426800000
   21      H       1.5839000000    -2.7703020000     4.0743910000
   22      H       0.3371110000    -2.2103560000     1.3896960000
   23      H       1.3224530000    -1.0091720000     0.5313480000
   24      H       1.2907890000    -1.0500290000     2.3044450000
 ----------------------------------------------------------------

   14   -5760.9905065394      7.84e-09  Convergence criterion met
 Total energy in the final basis set =    -5761.0084522654

                    Orbital Energies (a.u.)
 --------------------------------------------------------------

 Alpha MOs
 -- Occupied --
********-482.8506 -62.5035 -62.5035 -56.3241 -56.3241 -56.3201 -56.3201
-56.3198 -56.3198 -19.1382 -19.1382 -10.2875 -10.2875 -10.2700 -10.2695
-10.2220 -10.2215 -10.2191 -10.2191 -10.2174 -10.2167 -10.1722 -10.1722
 -8.7123  -8.7123  -6.5442  -6.5442  -6.5308  -6.5308  -6.5301  -6.5300
 -2.6550  -2.6550  -2.6513  -2.6512  -2.6509  -2.6507  -2.6401  -2.6401
 -2.6400  -2.6400  -1.0726  -1.0707  -0.9226  -0.8683  -0.8379  -0.8340
 -0.7778  -0.7672  -0.7507  -0.7011  -0.6814  -0.6483  -0.6144  -0.5945
 -0.5551  -0.5176  -0.5164  -0.4823  -0.4719  -0.4714  -0.4623  -0.4609
 -0.4362  -0.4295  -0.4223  -0.4157  -0.4093  -0.4050  -0.3993  -0.3976
 -0.3821  -0.3766  -0.3398  -0.3394  -0.3257  -0.2980  -0.2954  -0.2872
 -0.2818  -0.2782  -0.2680

          Ground-State Mulliken Net Atomic Charges

     Atom                 Charge (a.u.)
  ----------------------------------------
      1 C                    -0.230906
      2 C                     0.087436
      3 C                     0.094096
      4 C                     0.391745
      5 C                     0.390805
      6 C                    -0.231051
      7 C                    -1.966006
      8 C                     1.316805
      9 C                     1.318620
     10 C                    -1.963150
     11 O                    -0.265739
     12 O                    -0.266001
     13 H                     0.222899
     14 H                     0.223393
     15 Br                   -0.193632
     16 Br                   -0.196007
     17 C                    -0.004316
     18 C                    -0.004522
     19 H                     0.186422
     20 H                     0.226206
     21 H                     0.225234
     22 H                     0.225230
     23 H                     0.186315
     24 H                     0.226126
  ----------------------------------------
  Sum of atomic charges =     0.000000

                    Cartesian Multipole Moments
 -----------------------------------------------------------------
    Charge (ESU x 10^10)
                 0.0000
    Dipole Moment (Debye)
         X      -2.2291      Y       0.8376      Z       1.2079
       Tot       2.6702
    Quadrupole Moments (Debye-Ang)
        XX    -129.2702     XY      10.2348     YY    -129.2022
        XZ      -2.2717     YZ       4.4533     ZZ    -119.9770

 Total job time:  434.74s(wall), 3301.78s(cpu)
        *  Thank you very much for using Q-Chem.  Have a nice day.  *
