 Q-Chem 5.4, Q-Chem, Inc., Pleasanton, CA (2021)
 Q-Chem 5.4.0 for Intel X86 EM64T Linux

User input:
--------------------------------------------------------------
$molecule
0 1
C                 -0.3479110000      0.7320900000      0.4395880000
C                 -1.4425130000     -0.1387450000     -0.0445970000
C                 -1.2403400000     -1.2984660000     -0.6941600000
C                  0.1670630000     -1.7380070000     -0.9451000000
C                  1.2692740000     -0.8713540000     -0.4605270000
C                  1.0593410000      0.2778410000      0.2048730000
O                 -0.6068250000      1.7923630000      0.9877190000
O                  0.4115540000     -2.7791890000     -1.5311040000
C                  2.2700440000      1.0643680000      0.6829820000
C                  2.1591760000      1.9149630000      1.9220480000
O                  3.3120410000      0.9512410000      0.0719900000
H                 -2.4401970000      0.2384390000      0.1558740000
H                  1.5310120000      2.7849890000      1.7193370000
H                  3.1582160000      2.2283900000      2.2222470000
H                  1.6708560000      1.3665380000      2.7324080000
C                 -2.3364890000     -2.1857610000     -1.1955340000
H                  2.2761340000     -1.2174440000     -0.6676410000
H                 -3.3168990000     -1.7720030000     -0.9579470000
H                 -2.2520660000     -3.1839620000     -0.7570210000
H                 -2.2561690000     -2.3195700000     -2.2778740000
$end
$rem
MAX_SCF_CYCLES=200
BASIS  =  6-311++G(d,p)
GUI  =  2
JOB_TYPE  =  SP
METHOD  =  B3LYP
SOLVENT_METHOD = PCM
$end
$pcm
theory = CPCM
$end
$solvent
dielectric 37.219
opticaldielectric 1.43
$end

--------------------------------------------------------------

             Standard Nuclear Orientation (Angstroms)
    I     Atom           X                Y                Z
 ----------------------------------------------------------------
    1      C      -0.3479110000     0.7320900000     0.4395880000
    2      C      -1.4425130000    -0.1387450000    -0.0445970000
    3      C      -1.2403400000    -1.2984660000    -0.6941600000
    4      C       0.1670630000    -1.7380070000    -0.9451000000
    5      C       1.2692740000    -0.8713540000    -0.4605270000
    6      C       1.0593410000     0.2778410000     0.2048730000
    7      O      -0.6068250000     1.7923630000     0.9877190000
    8      O       0.4115540000    -2.7791890000    -1.5311040000
    9      C       2.2700440000     1.0643680000     0.6829820000
   10      C       2.1591760000     1.9149630000     1.9220480000
   11      O       3.3120410000     0.9512410000     0.0719900000
   12      H      -2.4401970000     0.2384390000     0.1558740000
   13      H       1.5310120000     2.7849890000     1.7193370000
   14      H       3.1582160000     2.2283900000     2.2222470000
   15      H       1.6708560000     1.3665380000     2.7324080000
   16      C      -2.3364890000    -2.1857610000    -1.1955340000
   17      H       2.2761340000    -1.2174440000    -0.6676410000
   18      H      -3.3168990000    -1.7720030000    -0.9579470000
   19      H      -2.2520660000    -3.1839620000    -0.7570210000
   20      H      -2.2561690000    -2.3195700000    -2.2778740000
 ----------------------------------------------------------------

    9    -573.5937714716      1.86e-06  Convergence criterion met
 Total energy in the final basis set =     -573.5937714716

                    Orbital Energies (a.u.)
 --------------------------------------------------------------

 Alpha MOs
 -- Occupied --
-19.1508 -19.1463 -19.1376 -10.2947 -10.2933 -10.2901 -10.2263 -10.2233
-10.2226 -10.2064 -10.1769 -10.1745  -1.0814  -1.0786  -1.0729  -0.8735
 -0.8201  -0.7590  -0.7333  -0.7024  -0.6359  -0.6198  -0.5587  -0.5372
 -0.5063  -0.4899  -0.4740  -0.4703  -0.4549  -0.4532  -0.4516  -0.4315
 -0.4268  -0.4116  -0.4113  -0.4007  -0.3932  -0.3804  -0.3181  -0.2984
 -0.2972  -0.2927  -0.2745

          Ground-State Mulliken Net Atomic Charges

     Atom                 Charge (a.u.)
  ----------------------------------------
      1 C                    -1.434200
      2 C                    -0.472334
      3 C                     1.155470
      4 C                    -0.836634
      5 C                     0.123514
      6 C                     1.429036
      7 O                    -0.263337
      8 O                    -0.264302
      9 C                     0.205753
     10 C                    -0.633405
     11 O                    -0.304597
     12 H                     0.233033
     13 H                     0.215116
     14 H                     0.187832
     15 H                     0.194478
     16 C                    -0.382330
     17 H                     0.263318
     18 H                     0.185092
     19 H                     0.199085
     20 H                     0.199412
  ----------------------------------------
  Sum of atomic charges =     0.000000

                    Cartesian Multipole Moments
 -----------------------------------------------------------------
    Charge (ESU x 10^10)
                 0.0000
    Dipole Moment (Debye)
         X      -3.8474      Y      -0.6016      Z       1.5897
       Tot       4.2061
    Quadrupole Moments (Debye-Ang)
        XX     -75.7449     XY       4.8147     YY     -79.5163
        XZ       8.0803     YZ      -4.2073     ZZ     -69.0701

 Total job time:  26.13s(wall), 132.20s(cpu)
        *  Thank you very much for using Q-Chem.  Have a nice day.  *
