 Q-Chem 5.4, Q-Chem, Inc., Pleasanton, CA (2021)
 Q-Chem 5.4.0 for Intel X86 EM64T Linux

User input:
--------------------------------------------------------------
$molecule
-2 1
N                 -5.0646480000     -0.6339880000     -0.6134770000
C                 -3.7399490000     -0.2067070000     -0.2969100000
C                 -3.5621130000      1.0275210000      0.3879420000
C                 -2.2896790000      1.4833270000      0.6653620000
C                 -1.1286960000      0.7755360000      0.2774250000
C                  0.1810540000      1.3282550000      0.5870350000
O                  0.3301290000      2.4381490000      1.1978340000
C                  1.3072360000      0.5208640000      0.1491100000
C                  2.6257140000      0.9756110000      0.4042400000
C                  3.7405960000      0.2655880000      0.0080940000
N                  5.0660850000      0.7567120000      0.2071280000
C                  3.5626590000     -0.9802050000     -0.6554300000
C                  2.2899980000     -1.4542320000     -0.8992520000
C                  1.1291320000     -0.7369390000     -0.5287890000
C                 -0.1806340000     -1.2905330000     -0.8367850000
O                 -0.3297670000     -2.4065730000     -1.4362800000
C                 -1.3067140000     -0.4772290000     -0.4097430000
C                 -2.6252190000     -0.9317770000     -0.6652780000
H                 -5.7142900000     -0.4920170000      0.1620580000
H                 -5.0893520000     -1.6157560000     -0.8718720000
H                 -4.4349510000      1.6126380000      0.6695980000
H                 -2.1362420000      2.4225340000      1.1872270000
H                  2.7214820000      1.9192960000      0.9348370000
H                  5.7088450000      0.0254010000      0.5164250000
H                  5.0881950000      1.5077030000      0.8903340000
H                  4.4358040000     -1.5400280000     -0.9836900000
H                  2.1364520000     -2.4027540000     -1.4039580000
H                 -2.7211290000     -1.8903940000     -1.1683750000
$end
$rem
MAX_SCF_CYCLES=200
BASIS  =  6-311++G(d,p)
GUI  =  2
JOB_TYPE  =  SP
METHOD  =  B3LYP
SOLVENT_METHOD = PCM
$end
$pcm
theory = CPCM
$end
$solvent
dielectric 37.219
opticaldielectric 1.43
$end

--------------------------------------------------------------

             Standard Nuclear Orientation (Angstroms)
    I     Atom           X                Y                Z
 ----------------------------------------------------------------
    1      N      -5.0646480000    -0.6339880000    -0.6134770000
    2      C      -3.7399490000    -0.2067070000    -0.2969100000
    3      C      -3.5621130000     1.0275210000     0.3879420000
    4      C      -2.2896790000     1.4833270000     0.6653620000
    5      C      -1.1286960000     0.7755360000     0.2774250000
    6      C       0.1810540000     1.3282550000     0.5870350000
    7      O       0.3301290000     2.4381490000     1.1978340000
    8      C       1.3072360000     0.5208640000     0.1491100000
    9      C       2.6257140000     0.9756110000     0.4042400000
   10      C       3.7405960000     0.2655880000     0.0080940000
   11      N       5.0660850000     0.7567120000     0.2071280000
   12      C       3.5626590000    -0.9802050000    -0.6554300000
   13      C       2.2899980000    -1.4542320000    -0.8992520000
   14      C       1.1291320000    -0.7369390000    -0.5287890000
   15      C      -0.1806340000    -1.2905330000    -0.8367850000
   16      O      -0.3297670000    -2.4065730000    -1.4362800000
   17      C      -1.3067140000    -0.4772290000    -0.4097430000
   18      C      -2.6252190000    -0.9317770000    -0.6652780000
   19      H      -5.7142900000    -0.4920170000     0.1620580000
   20      H      -5.0893520000    -1.6157560000    -0.8718720000
   21      H      -4.4349510000     1.6126380000     0.6695980000
   22      H      -2.1362420000     2.4225340000     1.1872270000
   23      H       2.7214820000     1.9192960000     0.9348370000
   24      H       5.7088450000     0.0254010000     0.5164250000
   25      H       5.0881950000     1.5077030000     0.8903340000
   26      H       4.4358040000    -1.5400280000    -0.9836900000
   27      H       2.1364520000    -2.4027540000    -1.4039580000
   28      H      -2.7211290000    -1.8903940000    -1.1683750000
 ----------------------------------------------------------------

    9    -799.9516483187      6.87e-06  Convergence criterion met
 Total energy in the final basis set =     -799.9516483187

                    Orbital Energies (a.u.)
 --------------------------------------------------------------

 Alpha MOs
 -- Occupied --
-19.0199 -19.0199 -14.2994 -14.2994 -10.1841 -10.1841 -10.1698 -10.1698
-10.1469 -10.1469 -10.1459 -10.1459 -10.1357 -10.1357 -10.1314 -10.1314
-10.1303 -10.1303  -0.9438  -0.9408  -0.8928  -0.8926  -0.8157  -0.8058
 -0.7396  -0.7194  -0.7143  -0.6929  -0.6270  -0.6109  -0.5795  -0.5682
 -0.5271  -0.5102  -0.5003  -0.4823  -0.4691  -0.4592  -0.4364  -0.4183
 -0.4179  -0.3985  -0.3969  -0.3866  -0.3828  -0.3702  -0.3688  -0.3601
 -0.3536  -0.3384  -0.3270  -0.3205  -0.3201  -0.2997  -0.2866  -0.2696
 -0.2298  -0.2226  -0.2039  -0.2038  -0.1952  -0.1890  -0.0979

          Ground-State Mulliken Net Atomic Charges

     Atom                 Charge (a.u.)
  ----------------------------------------
      1 N                    -0.437858
      2 C                    -0.579179
      3 C                    -0.247936
      4 C                     0.026380
      5 C                     0.164878
      6 C                    -0.629951
      7 O                    -0.685411
      8 C                     0.448741
      9 C                    -0.084067
     10 C                    -0.580403
     11 N                    -0.437111
     12 C                    -0.244430
     13 C                     0.026497
     14 C                     0.170254
     15 C                    -0.628939
     16 O                    -0.685300
     17 C                     0.451472
     18 C                    -0.082336
     19 H                     0.268273
     20 H                     0.278613
     21 H                     0.191677
     22 H                     0.146898
     23 H                     0.131814
     24 H                     0.268243
     25 H                     0.278588
     26 H                     0.191828
     27 H                     0.146813
     28 H                     0.131951
  ----------------------------------------
  Sum of atomic charges =    -2.000000

                    Cartesian Multipole Moments
 -----------------------------------------------------------------
    Charge (ESU x 10^10)
                -9.6064
    Dipole Moment (Debye)
         X      -0.0186      Y      -1.7151      Z       4.0250
       Tot       4.3752
    Quadrupole Moments (Debye-Ang)
        XX    -120.7466     XY      -0.9843     YY    -153.3192
        XZ      -0.5252     YZ     -18.1209     ZZ    -130.2262

 Total job time:  71.10s(wall), 366.78s(cpu)
        *  Thank you very much for using Q-Chem.  Have a nice day.  *
