 Q-Chem 5.4, Q-Chem, Inc., Pleasanton, CA (2021)
 Q-Chem 5.4.0 for Intel X86 EM64T Linux

User input:
--------------------------------------------------------------
$molecule
0 1
C                 -2.9130260000      1.3128800000     -0.7483670000
C                 -2.1963720000      0.0849140000     -0.1559250000
C                 -2.7339860000     -0.1330390000      1.2811000000
C                 -2.5402270000     -1.1401710000     -1.0404930000
C                 -0.6762270000      0.2860790000     -0.1162780000
C                 -0.0753000000      1.4115740000     -0.5545690000
C                  1.3820450000      1.6589300000     -0.5400590000
O                  1.8304110000      2.7149800000     -0.9614450000
C                  2.2571940000      0.5860680000     -0.0009800000
C                  3.6424910000      0.7575430000      0.0406240000
C                  4.4503610000     -0.2544300000      0.5477040000
C                  3.8769390000     -1.4402570000      1.0145230000
C                  2.4976520000     -1.6150270000      0.9747820000
C                  1.6782860000     -0.6026680000      0.4665950000
C                  0.1963240000     -0.8136830000      0.4340420000
O                 -0.2764410000     -1.8599230000      0.8477980000
H                 -2.6059550000      1.5115790000     -1.7789430000
H                 -3.9896480000      1.1267290000     -0.7570800000
H                 -2.7407500000      2.2157810000     -0.1559800000
H                 -2.3187320000     -1.0311130000      1.7348830000
H                 -3.8226590000     -0.2346110000      1.2480300000
H                 -2.4983320000      0.7242320000      1.9187690000
H                 -3.6269840000     -1.2519820000     -1.0960860000
H                 -2.1203720000     -2.0595820000     -0.6363770000
H                 -2.1667790000     -1.0013090000     -2.0594740000
H                 -0.6431360000      2.2386660000     -0.9610590000
H                  4.0621930000      1.6858600000     -0.3272740000
H                  5.5259300000     -0.1230680000      0.5808410000
H                  4.5087000000     -2.2277780000      1.4094500000
H                  2.0363990000     -2.5271750000      1.3321570000
$end
$rem
MAX_SCF_CYCLES=200
BASIS  =  6-311++G(d,p)
GUI  =  2
JOB_TYPE  =  SP
METHOD  =  B3LYP
SOLVENT_METHOD = PCM
$end
$pcm
theory = CPCM
$end
$solvent
dielectric 37.219
opticaldielectric 1.43
$end

--------------------------------------------------------------

             Standard Nuclear Orientation (Angstroms)
    I     Atom           X                Y                Z
 ----------------------------------------------------------------
    1      C      -2.9130260000     1.3128800000    -0.7483670000
    2      C      -2.1963720000     0.0849140000    -0.1559250000
    3      C      -2.7339860000    -0.1330390000     1.2811000000
    4      C      -2.5402270000    -1.1401710000    -1.0404930000
    5      C      -0.6762270000     0.2860790000    -0.1162780000
    6      C      -0.0753000000     1.4115740000    -0.5545690000
    7      C       1.3820450000     1.6589300000    -0.5400590000
    8      O       1.8304110000     2.7149800000    -0.9614450000
    9      C       2.2571940000     0.5860680000    -0.0009800000
   10      C       3.6424910000     0.7575430000     0.0406240000
   11      C       4.4503610000    -0.2544300000     0.5477040000
   12      C       3.8769390000    -1.4402570000     1.0145230000
   13      C       2.4976520000    -1.6150270000     0.9747820000
   14      C       1.6782860000    -0.6026680000     0.4665950000
   15      C       0.1963240000    -0.8136830000     0.4340420000
   16      O      -0.2764410000    -1.8599230000     0.8477980000
   17      H      -2.6059550000     1.5115790000    -1.7789430000
   18      H      -3.9896480000     1.1267290000    -0.7570800000
   19      H      -2.7407500000     2.2157810000    -0.1559800000
   20      H      -2.3187320000    -1.0311130000     1.7348830000
   21      H      -3.8226590000    -0.2346110000     1.2480300000
   22      H      -2.4983320000     0.7242320000     1.9187690000
   23      H      -3.6269840000    -1.2519820000    -1.0960860000
   24      H      -2.1203720000    -2.0595820000    -0.6363770000
   25      H      -2.1667790000    -1.0013090000    -2.0594740000
   26      H      -0.6431360000     2.2386660000    -0.9610590000
   27      H       4.0621930000     1.6858600000    -0.3272740000
   28      H       5.5259300000    -0.1230680000     0.5808410000
   29      H       4.5087000000    -2.2277780000     1.4094500000
   30      H       2.0363990000    -2.5271750000     1.3321570000
 ----------------------------------------------------------------

    8    -692.5679707640      9.87e-06  Convergence criterion met
 Total energy in the final basis set =     -692.5679707640

                    Orbital Energies (a.u.)
 --------------------------------------------------------------

 Alpha MOs
 -- Occupied --
-19.1352 -19.1340 -10.2857 -10.2814 -10.2171 -10.2066 -10.2050 -10.2007
-10.2000 -10.1964 -10.1961 -10.1957 -10.1953 -10.1577 -10.1567 -10.1567
 -1.0701  -1.0660  -0.8893  -0.8542  -0.8077  -0.7768  -0.7654  -0.6988
 -0.6868  -0.6855  -0.6482  -0.6397  -0.5913  -0.5622  -0.5399  -0.5235
 -0.4978  -0.4844  -0.4643  -0.4587  -0.4557  -0.4499  -0.4448  -0.4395
 -0.4335  -0.4227  -0.4142  -0.3902  -0.3808  -0.3798  -0.3766  -0.3681
 -0.3649  -0.3551  -0.3400  -0.3354  -0.2967  -0.2856  -0.2779  -0.2770
 -0.2721

          Ground-State Mulliken Net Atomic Charges

     Atom                 Charge (a.u.)
  ----------------------------------------
      1 C                    -0.512513
      2 C                     0.668897
      3 C                    -0.723449
      4 C                    -0.721949
      5 C                     0.852929
      6 C                    -0.219961
      7 C                    -0.693404
      8 O                    -0.309721
      9 C                     0.648051
     10 C                    -0.107301
     11 C                    -0.417368
     12 C                    -0.387935
     13 C                     0.199795
     14 C                     0.364746
     15 C                    -1.010608
     16 O                    -0.239511
     17 H                     0.148902
     18 H                     0.193039
     19 H                     0.148945
     20 H                     0.182085
     21 H                     0.176123
     22 H                     0.154841
     23 H                     0.176001
     24 H                     0.181697
     25 H                     0.155002
     26 H                     0.254690
     27 H                     0.190244
     28 H                     0.225848
     29 H                     0.223248
     30 H                     0.198639
  ----------------------------------------
  Sum of atomic charges =     0.000000

                    Cartesian Multipole Moments
 -----------------------------------------------------------------
    Charge (ESU x 10^10)
                 0.0000
    Dipole Moment (Debye)
         X       0.4612      Y      -1.3044      Z       0.6089
       Tot       1.5116
    Quadrupole Moments (Debye-Ang)
        XX     -76.0787     XY     -12.1895     YY    -107.3381
        XZ       7.0496     YZ       3.4773     ZZ     -97.6590

 Total job time:  47.92s(wall), 315.25s(cpu)
        *  Thank you very much for using Q-Chem.  Have a nice day.  *
