 Gaussian 16, Revision A.03,
 Gaussian 16:  ES64L-G16RevA.03 25-Dec-2016

 ----------------------------------------------------------------------
 #P UB3LYP/6-311++G(d,p) nosym opt freq SCRF=(PCM,Solvent=n,n-DiMethylF
 ormamide)
 ----------------------------------------------------------------------

 --------
 Oxidized
 --------
 Symbolic Z-matrix:
 Charge =  0 Multiplicity = 1

 SCF Done:  E(UB3LYP) =  -1454.50516213     A.U. after   15 cycles
 SCF Done:  E(UB3LYP) =  -1454.50522348     A.U. after   12 cycles
 SCF Done:  E(UB3LYP) =  -1454.50522195     A.U. after   11 cycles
 SCF Done:  E(UB3LYP) =  -1454.50518708     A.U. after   12 cycles
 SCF Done:  E(UB3LYP) =  -1454.50523137     A.U. after   12 cycles
 SCF Done:  E(UB3LYP) =  -1454.50523270     A.U. after   10 cycles
 Optimization completed.
    -- Stationary point found.
 Normal termination of Gaussian 16 at Sat Feb 10 23:36:17 2024.

 ----------------------------------------------------------------------
 #P Geom=AllCheck Guess=TCheck SCRF=Check GenChk UB3LYP/6-311++G(d,p) F
 req
 ----------------------------------------------------------------------

 Structure from the checkpoint file:  "232.chk"
 --------
 Oxidized
 --------
 Charge =  0 Multiplicity = 1

                          Input orientation:
 ---------------------------------------------------------------------
 Center     Atomic      Atomic             Coordinates (Angstroms)
 Number     Number       Type             X           Y           Z
 ---------------------------------------------------------------------
      1          6           0        5.922747   -5.218078    1.110205
      2          6           0        6.818878   -5.088546    0.055114
      3          6           0        6.608516   -4.107582   -0.925633
      4          6           0        4.816144   -4.377465    1.197321
      5          6           0        4.605376   -3.395398    0.215090
      6          6           0        5.504254   -3.267137   -0.840524
      7          6           0        3.862463   -4.529174    2.333843
      8          6           0        2.702041   -3.610561    2.371634
      9          6           0        2.500765   -2.673748    1.434290
     10          6           0        3.423882   -2.488546    0.291774
     11          8           0        4.020246   -5.373241    3.204270
     12          8           0        3.214574   -1.624089   -0.547222
     13          1           0        6.081113   -5.973476    1.868380
     14          1           0        5.338024   -2.509746   -1.595004
     15         17           0        7.708676   -3.914585   -2.263940
     16         17           0        8.190961   -6.161408   -0.017096
     17          1           0        2.022358   -3.740362    3.206186
     18          1           0        1.649229   -2.003657    1.468361
 ---------------------------------------------------------------------

 SCF Done:  E(UB3LYP) =  -1454.50523270     A.U. after    2 cycles

 Alpha  occ. eigenvalues -- -101.57963-101.57962 -19.14678 -19.14677 -10.29581
 Alpha  occ. eigenvalues --  -10.29580 -10.27757 -10.27707 -10.22557 -10.22506
 Alpha  occ. eigenvalues --  -10.22097 -10.22095 -10.22053 -10.21971  -9.49420
 Alpha  occ. eigenvalues --   -9.49418  -7.25900  -7.25898  -7.24910  -7.24909
 Alpha  occ. eigenvalues --   -7.24836  -7.24835  -1.07820  -1.07634  -0.94450
 Alpha  occ. eigenvalues --   -0.88597  -0.88416  -0.84120  -0.79057  -0.77067
 Alpha  occ. eigenvalues --   -0.71110  -0.66761  -0.65010  -0.61086  -0.55345
 Alpha  occ. eigenvalues --   -0.54208  -0.52879  -0.49886  -0.48151  -0.47705
 Alpha  occ. eigenvalues --   -0.47179  -0.46747  -0.44911  -0.44583  -0.43331
 Alpha  occ. eigenvalues --   -0.42912  -0.41314  -0.40254  -0.37087  -0.35718
 Alpha  occ. eigenvalues --   -0.35150  -0.33192  -0.31737  -0.29956  -0.28899
 Alpha  occ. eigenvalues --   -0.28895  -0.27821
 Alpha virt. eigenvalues --   -0.13858  -0.07467  -0.05011  -0.02346  -0.00470
 Alpha virt. eigenvalues --    0.00816   0.01087   0.01154   0.02187   0.03428
 Alpha virt. eigenvalues --    0.03429   0.03768   0.04192   0.04605   0.06478

  Beta  occ. eigenvalues -- -101.57963-101.57962 -19.14678 -19.14677 -10.29581
  Beta  occ. eigenvalues --  -10.29580 -10.27757 -10.27707 -10.22557 -10.22506
  Beta  occ. eigenvalues --  -10.22097 -10.22095 -10.22053 -10.21971  -9.49420
  Beta  occ. eigenvalues --   -9.49418  -7.25900  -7.25898  -7.24910  -7.24909
  Beta  occ. eigenvalues --   -7.24836  -7.24835  -1.07820  -1.07634  -0.94450
  Beta  occ. eigenvalues --   -0.88597  -0.88416  -0.84120  -0.79057  -0.77067
  Beta  occ. eigenvalues --   -0.71110  -0.66761  -0.65010  -0.61086  -0.55345
  Beta  occ. eigenvalues --   -0.54208  -0.52879  -0.49886  -0.48151  -0.47705
  Beta  occ. eigenvalues --   -0.47179  -0.46747  -0.44911  -0.44583  -0.43331
  Beta  occ. eigenvalues --   -0.42912  -0.41314  -0.40254  -0.37087  -0.35718
  Beta  occ. eigenvalues --   -0.35150  -0.33192  -0.31737  -0.29956  -0.28899
  Beta  occ. eigenvalues --   -0.28895  -0.27821
  Beta virt. eigenvalues --   -0.13858  -0.07467  -0.05011  -0.02346  -0.00470
  Beta virt. eigenvalues --    0.00816   0.01087   0.01154   0.02187   0.03428
  Beta virt. eigenvalues --    0.03429   0.03768   0.04192   0.04605   0.06478

 Mulliken charges and spin densities:
               1          2
     1  C   -0.517409   0.000000
     2  C    0.636795  -0.000000
     3  C    0.636848  -0.000000
     4  C   -0.331541   0.000000
     5  C   -0.331223  -0.000000
     6  C   -0.517658  -0.000000
     7  C   -0.759108  -0.000000
     8  C    0.152699   0.000000
     9  C    0.152674  -0.000000
    10  C   -0.759540   0.000000
    11  O   -0.274934   0.000000
    12  O   -0.275028  -0.000000
    13  H    0.238906  -0.000000
    14  H    0.238840  -0.000000
    15  Cl   0.610839  -0.000000
    16  Cl   0.610786  -0.000000
    17  H    0.244047   0.000000
    18  H    0.244006   0.000000
 Sum of Mulliken charges =  -0.00000   0.00000

 Dipole moment (field-independent basis, Debye):
    X=             -1.1938    Y=              0.4147    Z=              0.6724  Tot=              1.4315
 Quadrupole moment (field-independent basis, Debye-Ang):
   XX=           -101.7311   YY=           -104.2306   ZZ=            -99.4639
   XY=              7.2674   XZ=             -1.1855   YZ=              6.4742

  Exact polarizability: 222.223 -61.376 190.791 -53.301 -55.734 215.474
 Approx polarizability: 242.526 -68.732 240.534 -47.186 -87.493 265.490

                      1                      2                      3
                      A                      A                      A
 Frequencies --     58.0536                72.3941               115.9400
 Red. masses --     20.1979                 6.2212                10.9028
 Frc consts  --      0.0401                 0.0192                 0.0863
 IR Inten    --      0.0060                15.0617                 6.1858

                      4                      5                      6
                      A                      A                      A
 Frequencies --    171.2779               192.8131               199.6772
 Red. masses --     13.5809                 5.8190                30.7262
 Frc consts  --      0.2347                 0.1275                 0.7218
 IR Inten    --      0.0568                 0.0007                 0.1300

                      7                      8                      9
                      A                      A                      A
 Frequencies --    267.5993               303.4100               303.6888
 Red. masses --      4.2128                16.6493                17.3601
 Frc consts  --      0.1777                 0.9030                 0.9433
 IR Inten    --      0.0016                 0.1272                 0.7552

                     10                     11                     12
                      A                      A                      A
 Frequencies --    305.9627               440.3590               445.6090
 Red. masses --      8.5195                 3.3030                11.5223
 Frc consts  --      0.4699                 0.3774                 1.3480
 IR Inten    --      0.2176                 6.8852                58.8976

                     13                     14                     15
                      A                      A                      A
 Frequencies --    462.4795               478.0780               534.2595
 Red. masses --      7.5267                11.5974                 8.8295
 Frc consts  --      0.9485                 1.5617                 1.4849
 IR Inten    --      3.2641                55.7168                 6.2529

                     16                     17                     18
                      A                      A                      A
 Frequencies --    572.1284               614.6001               616.0187
 Red. masses --      9.6862                 4.4183                 2.1741
 Frc consts  --      1.8681                 0.9833                 0.4861
 IR Inten    --      0.0003                 0.7086                 0.0342

                     19                     20                     21
                      A                      A                      A
 Frequencies --    658.7659               682.2449               717.2082
 Red. masses --      7.4904                 5.2817                 7.0812
 Frc consts  --      1.9152                 1.4484                 2.1461
 IR Inten    --     34.1366                 0.0042                12.1343

                     22                     23                     24
                      A                      A                      A
 Frequencies --    780.4236               797.8408               863.1059
 Red. masses --      7.1531                 6.5698                 1.8967
 Frc consts  --      2.5669                 2.4640                 0.8325
 IR Inten    --      3.7562                 0.0016               105.8124

                     25                     26                     27
                      A                      A                      A
 Frequencies --    891.7156               913.8439               940.1042
 Red. masses --      7.9389                 1.4022                 1.4953
 Frc consts  --      3.7193                 0.6899                 0.7787
 IR Inten    --    128.2493                 0.0023                16.3804

                     28                     29                     30
                      A                      A                      A
 Frequencies --   1017.3438              1066.4080              1081.7722
 Red. masses --      1.2605                 2.4861                 5.5846
 Frc consts  --      0.7686                 1.6658                 3.8505
 IR Inten    --      0.0020                73.8869                 4.1490

                     31                     32                     33
                      A                      A                      A
 Frequencies --   1131.7521              1177.9860              1233.2112
 Red. masses --      1.7669                 1.8326                 3.8905
 Frc consts  --      1.3334                 1.4983                 3.4860
 IR Inten    --     28.2124               192.7720                 2.2828

                     34                     35                     36
                      A                      A                      A
 Frequencies --   1251.8601              1305.4440              1329.4142
 Red. masses --      1.3423                 3.3559                 9.6028
 Frc consts  --      1.2394                 3.3695                 9.9992
 IR Inten    --     12.1985               779.4394                79.3273

                     37                     38                     39
                      A                      A                      A
 Frequencies --   1375.9542              1410.6718              1486.3190
 Red. masses --      2.2264                 3.9373                 3.1748
 Frc consts  --      2.4834                 4.6164                 4.1322
 IR Inten    --      0.0668                14.2772                11.6247

                     40                     41                     42
                      A                      A                      A
 Frequencies --   1582.9951              1603.2244              1658.7960
 Red. masses --     10.6119                 6.9717                 8.5810
 Frc consts  --     15.6675                10.5579                13.9116
 IR Inten    --     21.3021               382.2559                87.0337

                     43                     44                     45
                      A                      A                      A
 Frequencies --   1703.5469              1708.3239              3183.1042
 Red. masses --     11.4481                10.0435                 1.0878
 Frc consts  --     19.5745                17.2694                 6.4936
 IR Inten    --    930.5470                56.3405                 2.3403

                     46                     47                     48
                      A                      A                      A
 Frequencies --   3198.6797              3211.6803              3213.0622
 Red. masses --      1.0989                 1.0915                 1.0919
 Frc consts  --      6.6244                 6.6336                 6.6417
 IR Inten    --      4.8095                 5.7064                 4.8047

 - Thermochemistry -
 -------------------
 Temperature   298.150 Kelvin.  Pressure   1.00000 Atm.
 Atom     1 has atomic number  6 and mass  12.00000

 Molecular mass:   225.95883 amu.
 Principal axes and moments of inertia in atomic units:
                           1         2         3
     Eigenvalues --  1994.618614639.654006634.26834
           X            0.83041   0.15012   0.53655
           Y           -0.29466  -0.69898   0.65161
           Z           -0.47286   0.69920   0.53621
 This molecule is an asymmetric top.
 Rotational symmetry number  1.
 Warning -- assumption of classical behavior for rotation
           may cause significant error
 Rotational temperatures (Kelvin)      0.04342     0.01867     0.01306
 Rotational constants (GHZ):           0.90481     0.38898     0.27203
 Zero-point vibrational energy     295065.8 (Joules/Mol)
                                   70.52242 (Kcal/Mol)
 Warning -- explicit consideration of  18 degrees of freedom as
           vibrations may cause significant error
 Vibrational temperatures:     83.53   104.16   166.81   246.43   277.42
          (Kelvin)            287.29   385.02   436.54   436.94   440.21
                              633.58   641.13   665.40   687.85   768.68
                              823.17   884.27   886.31   947.82   981.60
                             1031.90  1122.86  1147.92  1241.82  1282.98
                             1314.82  1352.60  1463.73  1534.32  1556.43
                             1628.34  1694.86  1774.32  1801.15  1878.24
                             1912.73  1979.69  2029.64  2138.48  2277.58
                             2306.68  2386.64  2451.02  2457.90  4579.78
                             4602.19  4620.89  4622.88

 Zero-point correction=                           0.112385 (Hartree/Particle)
 Thermal correction to Energy=                    0.123637
 Thermal correction to Enthalpy=                  0.124581
 Thermal correction to Gibbs Free Energy=         0.073988
 Sum of electronic and zero-point Energies=          -1454.392848
 Sum of electronic and thermal Energies=             -1454.381596
 Sum of electronic and thermal Enthalpies=           -1454.380652
 Sum of electronic and thermal Free Energies=        -1454.431245

                     E (Thermal)             CV                S
                      KCal/Mol        Cal/Mol-Kelvin    Cal/Mol-Kelvin
 Total                   77.583             42.280            106.482
 Electronic               0.000              0.000              0.000
 Translational            0.889              2.981             42.148
 Rotational               0.889              2.981             32.485
 Vibrational             75.806             36.318             31.850
 Vibration     1          0.596              1.974              4.522
 Vibration     2          0.598              1.967              4.087
 Vibration     3          0.608              1.936              3.167
 Vibration     4          0.626              1.878              2.421
 Vibration     5          0.635              1.850              2.201
 Vibration     6          0.638              1.840              2.136
 Vibration     7          0.673              1.733              1.612
 Vibration     8          0.695              1.667              1.398
 Vibration     9          0.695              1.667              1.396
 Vibration    10          0.696              1.662              1.384
 Vibration    11          0.800              1.382              0.825
 Vibration    12          0.805              1.371              0.809
 Vibration    13          0.820              1.333              0.759
 Vibration    14          0.835              1.299              0.715
 Vibration    15          0.889              1.174              0.578
 Vibration    16          0.928              1.092              0.500
 Vibration    17          0.974              1.001              0.425
 Vibration    18          0.976              0.998              0.423

 Optimization completed.
    -- Stationary point found.
 Normal termination of Gaussian 16 at Sat Feb 10 23:52:11 2024.
