 Gaussian 16, Revision A.03,
 Gaussian 16:  ES64L-G16RevA.03 25-Dec-2016

 ----------------------------------------------------------------
 #P UB3LYP/6-311++G(d,p) SCRF=(PCM,Solvent=n,n-DiMethylFormamide)
 ----------------------------------------------------------------

 -------
 Reduced
 -------
 Symbolic Z-matrix:
 Charge = -2 Multiplicity = 1

                         Standard orientation:
 ---------------------------------------------------------------------
 Center     Atomic      Atomic             Coordinates (Angstroms)
 Number     Number       Type             X           Y           Z
 ---------------------------------------------------------------------
      1         35           0       -2.907835   -0.634015   -0.000013
      2          6           0       -0.978309   -0.124996   -0.000080
      3          6           0       -0.081650   -1.201347   -0.000061
      4          6           0        1.287461   -0.915209   -0.000058
      5          6           0        2.293337   -1.925848    0.000110
      6          6           0        3.639341   -1.627928    0.000155
      7          6           0        4.058744   -0.260822    0.000015
      8          6           0        3.107214    0.740486   -0.000155
      9          6           0        1.712093    0.479871   -0.000138
     10          6           0        0.774395    1.588665   -0.000168
     11          8           0        1.163525    2.794760    0.000084
     12          6           0       -0.703064    1.274663   -0.000017
     13          8           0       -1.577071    2.189609    0.000248
     14          1           0       -0.438205   -2.225325   -0.000002
     15          1           0        1.969107   -2.967233    0.000181
     16          1           0        4.377495   -2.428792    0.000267
     17          1           0        5.119637   -0.015795    0.000021
     18          1           0        3.397196    1.787525   -0.000285
 ---------------------------------------------------------------------

 SCF Done:  E(UB3LYP) =  -3109.06256550     A.U. after   17 cycles

 The electronic state is 1-A.
 Alpha  occ. eigenvalues -- -482.79982 -62.45260 -56.27251 -56.26937 -56.26918
 Alpha  occ. eigenvalues --  -19.02833 -19.02543 -10.18295 -10.18114 -10.18018
 Alpha  occ. eigenvalues --  -10.15285 -10.15029 -10.15000 -10.14737 -10.14571
 Alpha  occ. eigenvalues --  -10.13617 -10.13582  -8.66203  -6.49187  -6.48150
 Alpha  occ. eigenvalues --   -6.48095  -2.60305  -2.60019  -2.59978  -2.59153
 Alpha  occ. eigenvalues --   -2.59153  -0.96196  -0.93404  -0.83244  -0.79044
 Alpha  occ. eigenvalues --   -0.74707  -0.72744  -0.68020  -0.65411  -0.57866
 Alpha  occ. eigenvalues --   -0.56575  -0.53702  -0.48130  -0.46129  -0.44949
 Alpha  occ. eigenvalues --   -0.41348  -0.40326  -0.38693  -0.38014  -0.37825
 Alpha  occ. eigenvalues --   -0.36670  -0.34796  -0.33696  -0.32485  -0.31293
 Alpha  occ. eigenvalues --   -0.30607  -0.27906  -0.26855  -0.26653  -0.23104
 Alpha  occ. eigenvalues --   -0.21667  -0.19033  -0.18969  -0.12078
 Alpha virt. eigenvalues --   -0.01197  -0.00173   0.00241   0.01413   0.02060
 Alpha virt. eigenvalues --    0.02380   0.03593   0.03741   0.03857   0.05505
 Alpha virt. eigenvalues --    0.06046   0.06058   0.06279   0.06657   0.07869

  Beta  occ. eigenvalues -- -482.79982 -62.45260 -56.27251 -56.26937 -56.26918
  Beta  occ. eigenvalues --  -19.02833 -19.02543 -10.18295 -10.18114 -10.18018
  Beta  occ. eigenvalues --  -10.15285 -10.15029 -10.15000 -10.14737 -10.14571
  Beta  occ. eigenvalues --  -10.13617 -10.13582  -8.66203  -6.49187  -6.48150
  Beta  occ. eigenvalues --   -6.48095  -2.60305  -2.60019  -2.59978  -2.59153
  Beta  occ. eigenvalues --   -2.59153  -0.96196  -0.93404  -0.83244  -0.79044
  Beta  occ. eigenvalues --   -0.74707  -0.72744  -0.68020  -0.65411  -0.57866
  Beta  occ. eigenvalues --   -0.56575  -0.53702  -0.48130  -0.46129  -0.44949
  Beta  occ. eigenvalues --   -0.41348  -0.40326  -0.38693  -0.38014  -0.37825
  Beta  occ. eigenvalues --   -0.36670  -0.34796  -0.33696  -0.32485  -0.31293
  Beta  occ. eigenvalues --   -0.30607  -0.27906  -0.26855  -0.26653  -0.23104
  Beta  occ. eigenvalues --   -0.21667  -0.19033  -0.18969  -0.12078
  Beta virt. eigenvalues --   -0.01197  -0.00173   0.00241   0.01413   0.02060
  Beta virt. eigenvalues --    0.02380   0.03593   0.03741   0.03857   0.05505
  Beta virt. eigenvalues --    0.06046   0.06058   0.06279   0.06657   0.07869

 Mulliken charges and spin densities:
               1          2
     1  Br  -0.296240   0.000000
     2  C    0.698056  -0.000000
     3  C   -0.471997   0.000000
     4  C   -0.463707  -0.000000
     5  C   -0.202244   0.000000
     6  C   -0.416943  -0.000000
     7  C   -0.387591   0.000000
     8  C    0.105721   0.000000
     9  C    0.744549   0.000000
    10  C   -0.444175   0.000000
    11  O   -0.625923   0.000000
    12  C   -0.359964   0.000000
    13  O   -0.631399  -0.000000
    14  H    0.171717  -0.000000
    15  H    0.125343   0.000000
    16  H    0.160428  -0.000000
    17  H    0.157519  -0.000000
    18  H    0.136848  -0.000000
 Sum of Mulliken charges =  -2.00000  -0.00000

 Dipole moment (field-independent basis, Debye):
    X=              1.3419    Y=            -13.6703    Z=             -0.0007  Tot=             13.7360
 Quadrupole moment (field-independent basis, Debye-Ang):
   XX=           -131.4798   YY=           -138.5774   ZZ=            -99.1585
   XY=              2.0431   XZ=              0.0012   YZ=             -0.0036

 Normal termination of Gaussian 16 at Sat Jan 13 19:17:11 2024.
