 Gaussian 16, Revision A.03,
 Gaussian 16:  ES64L-G16RevA.03 25-Dec-2016

 --------------------------------------
 #P UB3LYP/6-311++G(d,p) nosym opt freq
 --------------------------------------

 -------
 Radical
 -------
 Symbolic Z-matrix:
 Charge = -1 Multiplicity = 2

 SCF Done:  E(UB3LYP) =  -744.342888902     A.U. after   25 cycles
 SCF Done:  E(UB3LYP) =  -744.355033852     A.U. after   19 cycles
 SCF Done:  E(UB3LYP) =  -744.356166590     A.U. after   18 cycles
 SCF Done:  E(UB3LYP) =  -744.356383740     A.U. after   18 cycles
 SCF Done:  E(UB3LYP) =  -744.356387643     A.U. after   17 cycles
 SCF Done:  E(UB3LYP) =  -744.356460666     A.U. after   17 cycles
 SCF Done:  E(UB3LYP) =  -744.356469041     A.U. after   16 cycles
 SCF Done:  E(UB3LYP) =  -744.356477776     A.U. after   15 cycles
 SCF Done:  E(UB3LYP) =  -744.356479754     A.U. after   14 cycles
 SCF Done:  E(UB3LYP) =  -744.356480913     A.U. after   12 cycles
 SCF Done:  E(UB3LYP) =  -744.356483232     A.U. after   13 cycles
 SCF Done:  E(UB3LYP) =  -744.356485781     A.U. after   13 cycles
 SCF Done:  E(UB3LYP) =  -744.356487845     A.U. after   13 cycles
 SCF Done:  E(UB3LYP) =  -744.356488604     A.U. after   14 cycles
 Optimization completed.
    -- Stationary point found.
 Normal termination of Gaussian 16 at Wed Dec 20 02:34:13 2023.

 ----------------------------------------------------------------------
 #P Geom=AllCheck Guess=TCheck SCRF=Check GenChk UB3LYP/6-311++G(d,p) F
 req
 ----------------------------------------------------------------------

 Structure from the checkpoint file:  "114-rad.chk"
 -------
 Radical
 -------
 Charge = -1 Multiplicity = 2

                          Input orientation:
 ---------------------------------------------------------------------
 Center     Atomic      Atomic             Coordinates (Angstroms)
 Number     Number       Type             X           Y           Z
 ---------------------------------------------------------------------
      1          6           0       -3.112297   -3.208594   -0.826444
      2          6           0       -2.110913   -2.147633   -0.952559
      3          6           0       -2.486054   -0.823565   -0.820365
      4          6           0       -3.833143   -0.386253   -0.536441
      5          6           0       -4.810703   -1.449080   -0.416250
      6          6           0       -4.466037   -2.763901   -0.557342
      7          8           0       -2.832161   -4.436358   -0.927460
      8          8           0       -4.137811    0.836162   -0.412130
      9          6           0       -0.689316   -2.478372   -1.173530
     10          6           0       -0.079440   -3.443861   -2.069346
     11          6           0        0.356561   -1.820154   -0.571551
     12          6           0        1.330884   -3.293168   -1.966446
     13          7           0        1.570574   -2.291767   -1.049628
     14          6           0       -0.583208   -4.400700   -2.965546
     15          6           0        0.303670   -5.160400   -3.716543
     16          6           0        1.697649   -4.995237   -3.593925
     17          6           0        2.228541   -4.059898   -2.714965
     18          1           0       -1.750264   -0.035025   -0.951465
     19          1           0       -5.836319   -1.152818   -0.212200
     20          1           0       -5.208000   -3.552407   -0.463323
     21          1           0        0.325450   -1.040673    0.173530
     22          1           0        2.474768   -2.016143   -0.708564
     23          1           0       -1.651095   -4.561132   -3.023772
     24          1           0       -0.081928   -5.907564   -4.402535
     25          1           0        2.365771   -5.609392   -4.189222
     26          1           0        3.301859   -3.928186   -2.615727
 ---------------------------------------------------------------------

 SCF Done:  E(UB3LYP) =  -744.356488604     A.U. after    1 cycles

 Alpha  occ. eigenvalues --  -18.93616 -18.93442 -14.25879 -10.10574 -10.09632
 Alpha  occ. eigenvalues --  -10.08458 -10.07951 -10.07909 -10.07493 -10.06582
 Alpha  occ. eigenvalues --  -10.06457 -10.06202 -10.06128 -10.04670 -10.03120
 Alpha  occ. eigenvalues --  -10.03053 -10.02939  -0.88139  -0.85906  -0.85307
 Alpha  occ. eigenvalues --   -0.74195  -0.70354  -0.67522  -0.63768  -0.62991
 Alpha  occ. eigenvalues --   -0.60142  -0.54853  -0.52591  -0.50040  -0.49029
 Alpha  occ. eigenvalues --   -0.45322  -0.44479  -0.41841  -0.38267  -0.37360
 Alpha  occ. eigenvalues --   -0.34582  -0.33560  -0.33166  -0.32849  -0.32068
 Alpha  occ. eigenvalues --   -0.31149  -0.29678  -0.28375  -0.26970  -0.26251
 Alpha  occ. eigenvalues --   -0.25816  -0.24395  -0.23910  -0.23333  -0.23165
 Alpha  occ. eigenvalues --   -0.22319  -0.18279  -0.14354  -0.13478  -0.12790
 Alpha  occ. eigenvalues --   -0.10288  -0.09672  -0.09263  -0.02366
 Alpha virt. eigenvalues --    0.06219   0.07537   0.07733   0.09163   0.10490
 Alpha virt. eigenvalues --    0.10592   0.10979   0.11182   0.11882   0.12639
 Alpha virt. eigenvalues --    0.13124   0.13789   0.14368   0.14984   0.15512

  Beta  occ. eigenvalues --  -18.92896 -18.92682 -14.25871 -10.10576 -10.09607
  Beta  occ. eigenvalues --  -10.08349 -10.07908 -10.07867 -10.07495 -10.06573
  Beta  occ. eigenvalues --  -10.06456 -10.06203 -10.06144 -10.04555 -10.03015
  Beta  occ. eigenvalues --  -10.02945 -10.02805  -0.88118  -0.84666  -0.83983
  Beta  occ. eigenvalues --   -0.74190  -0.70060  -0.67159  -0.63758  -0.62877
  Beta  occ. eigenvalues --   -0.59955  -0.53910  -0.52557  -0.49839  -0.48921
  Beta  occ. eigenvalues --   -0.44983  -0.44442  -0.41604  -0.38234  -0.37314
  Beta  occ. eigenvalues --   -0.34457  -0.33361  -0.33035  -0.32637  -0.31995
  Beta  occ. eigenvalues --   -0.30903  -0.29592  -0.28259  -0.26216  -0.25569
  Beta  occ. eigenvalues --   -0.24775  -0.24141  -0.23871  -0.22916  -0.22173
  Beta  occ. eigenvalues --   -0.20292  -0.17997  -0.13170  -0.12728  -0.10996
  Beta  occ. eigenvalues --   -0.09510  -0.08987  -0.08635
  Beta virt. eigenvalues --    0.04840   0.06221   0.07538   0.07813   0.09164
  Beta virt. eigenvalues --    0.10500   0.10602   0.11101   0.11890   0.12062
  Beta virt. eigenvalues --    0.12687   0.13228   0.13827   0.14496   0.15028

 Mulliken charges and spin densities:
               1          2
     1  C   -1.286416   0.025351
     2  C    1.405212   0.104952
     3  C   -0.582749   0.058356
     4  C   -0.646393   0.096874
     5  C    0.081623   0.081430
     6  C    0.166123   0.103687
     7  O   -0.379896   0.263002
     8  O   -0.417452   0.270230
     9  C    0.518383   0.020356
    10  C    1.352913  -0.060744
    11  C   -0.272826   0.026939
    12  C    0.075110  -0.011818
    13  N   -0.096426   0.002270
    14  C   -1.004705   0.042111
    15  C   -0.556866   0.004686
    16  C   -0.238737  -0.000244
    17  C   -0.555972  -0.001295
    18  H    0.149443  -0.009425
    19  H    0.146783  -0.006896
    20  H    0.150236  -0.007548
    21  H    0.166155  -0.002069
    22  H    0.276839  -0.000010
    23  H    0.171379  -0.000107
    24  H    0.140405  -0.000191
    25  H    0.125934   0.000104
    26  H    0.111899  -0.000000
 Sum of Mulliken charges =  -1.00000   1.00000

 Dipole moment (field-independent basis, Debye):
    X=             15.5037    Y=             10.1949    Z=              5.3320  Tot=             19.3062
 Quadrupole moment (field-independent basis, Debye-Ang):
   XX=           -151.8354   YY=           -162.4153   ZZ=           -113.8864
   XY=            -13.7240   XZ=             -5.6016   YZ=            -14.8603

  Exact polarizability: 246.431 -38.856 228.516 -30.426  51.396 143.324
 Approx polarizability: 352.742 -34.169 405.770 -18.744  86.105 227.426

                      1                      2                      3
                      A                      A                      A
 Frequencies --     38.4544                74.1449                84.0422
 Red. masses --      7.2547                 4.5103                 5.5592
 Frc consts  --      0.0063                 0.0146                 0.0231
 IR Inten    --      0.1681                 1.9328                 1.4999

                      4                      5                      6
                      A                      A                      A
 Frequencies --    131.8751               178.0077               209.1958
 Red. masses --      9.3538                 4.4389                 6.0550
 Frc consts  --      0.0958                 0.0829                 0.1561
 IR Inten    --      9.1454                12.6138                 5.1793

                      7                      8                      9
                      A                      A                      A
 Frequencies --    215.7901               251.2930               272.7029
 Red. masses --      3.1741                 2.2558                 7.6021
 Frc consts  --      0.0871                 0.0839                 0.3331
 IR Inten    --     17.7856                38.0569                 3.2094

                     10                     11                     12
                      A                      A                      A
 Frequencies --    324.4438               362.8572               413.8630
 Red. masses --      4.7752                 3.0155                 8.7639
 Frc consts  --      0.2962                 0.2339                 0.8844
 IR Inten    --      4.0783                11.7154                 7.1028

                     13                     14                     15
                      A                      A                      A
 Frequencies --    425.6271               444.8063               480.1781
 Red. masses --      2.8996                 3.7910                 7.1979
 Frc consts  --      0.3095                 0.4419                 0.9778
 IR Inten    --      6.0424                 5.1415                 1.4082

                     16                     17                     18
                      A                      A                      A
 Frequencies --    485.0819               548.2328               565.1143
 Red. masses --      4.1442                 5.4507                 4.5336
 Frc consts  --      0.5745                 0.9652                 0.8530
 IR Inten    --      1.0830                 2.3731                 1.8800

                     19                     20                     21
                      A                      A                      A
 Frequencies --    579.6905               609.6606               633.0999
 Red. masses --      3.3005                 3.6383                 5.4091
 Frc consts  --      0.6535                 0.7967                 1.2774
 IR Inten    --      6.1993                 5.4043                 4.0644

                     22                     23                     24
                      A                      A                      A
 Frequencies --    652.1993               680.6019               732.1337
 Red. masses --      2.7946                 6.1865                 1.3094
 Frc consts  --      0.7004                 1.6884                 0.4135
 IR Inten    --      1.0100                 1.9130                77.1982

                     25                     26                     27
                      A                      A                      A
 Frequencies --    752.1430               759.9687               776.3976
 Red. masses --      3.4162                 3.0278                 4.9305
 Frc consts  --      1.1386                 1.0303                 1.7511
 IR Inten    --      0.7759                 6.8226                 2.5320

                     28                     29                     30
                      A                      A                      A
 Frequencies --    788.2534               822.0929               827.4056
 Red. masses --      1.6486                 4.3309                 1.9881
 Frc consts  --      0.6035                 1.7245                 0.8019
 IR Inten    --     13.1129                32.3948                21.6473

                     31                     32                     33
                      A                      A                      A
 Frequencies --    836.4333               856.4127               887.2853
 Red. masses --      1.7876                 5.3525                 2.0162
 Frc consts  --      0.7369                 2.3130                 0.9352
 IR Inten    --      2.1218                19.3317                18.2127

                     34                     35                     36
                      A                      A                      A
 Frequencies --    889.3413               918.4541               955.9501
 Red. masses --      3.3821                 1.3291                 1.2817
 Frc consts  --      1.5761                 0.6606                 0.6901
 IR Inten    --     11.9490                 1.7929                 0.1570

                     37                     38                     39
                      A                      A                      A
 Frequencies --    960.0791               981.6191              1031.4768
 Red. masses --      1.2907                 3.0685                 2.1241
 Frc consts  --      0.7009                 1.7420                 1.3315
 IR Inten    --      1.5199                38.4594                25.7101

                     40                     41                     42
                      A                      A                      A
 Frequencies --   1076.1214              1098.4012              1112.8038
 Red. masses --      2.6034                 1.5867                 1.9229
 Frc consts  --      1.7763                 1.1279                 1.4030
 IR Inten    --     20.1227                37.4165                 3.2577

                     43                     44                     45
                      A                      A                      A
 Frequencies --   1148.4870              1170.7525              1200.1126
 Red. masses --      1.4127                 1.1833                 2.2188
 Frc consts  --      1.0979                 0.9556                 1.8828
 IR Inten    --      5.0606                 6.1124                29.4920

                     46                     47                     48
                      A                      A                      A
 Frequencies --   1240.1816              1249.7098              1265.4218
 Red. masses --      1.6431                 1.9565                 2.1554
 Frc consts  --      1.4890                 1.8003                 2.0336
 IR Inten    --      7.3622                 3.3769                14.3667

                     49                     50                     51
                      A                      A                      A
 Frequencies --   1306.7084              1336.0643              1352.8996
 Red. masses --      2.5048                 2.5666                 2.2000
 Frc consts  --      2.5199                 2.6994                 2.3725
 IR Inten    --     12.4788                 1.9164                12.2449

                     52                     53                     54
                      A                      A                      A
 Frequencies --   1369.1090              1423.5307              1440.5191
 Red. masses --      6.1552                 3.4888                 2.7295
 Frc consts  --      6.7978                 4.1654                 3.3371
 IR Inten    --     33.4959                91.8145                 8.1373

                     55                     56                     57
                      A                      A                      A
 Frequencies --   1473.7105              1488.7003              1504.0317
 Red. masses --      2.9489                 8.8383                 4.8763
 Frc consts  --      3.7734                11.5407                 6.4991
 IR Inten    --     31.4398                 9.4458                32.7126

                     58                     59                     60
                      A                      A                      A
 Frequencies --   1514.5547              1524.9614              1567.1204
 Red. masses --      3.0028                 5.9535                 5.8612
 Frc consts  --      4.0583                 8.1572                 8.4809
 IR Inten    --     11.6675               456.7386                 1.0106

                     61                     62                     63
                      A                      A                      A
 Frequencies --   1603.7469              1635.2811              1647.7418
 Red. masses --      5.7653                 6.8243                 6.1668
 Frc consts  --      8.7366                10.7521                 9.8649
 IR Inten    --      1.4916                17.1290                 1.8358

                     64                     65                     66
                      A                      A                      A
 Frequencies --   3130.9344              3139.9698              3145.1573
 Red. masses --      1.0850                 1.0847                 1.0889
 Frc consts  --      6.2664                 6.3008                 6.3466
 IR Inten    --     19.6681                 2.7682                27.3778

                     67                     68                     69
                      A                      A                      A
 Frequencies --   3152.9034              3154.0339              3168.5541
 Red. masses --      1.0899                 1.0945                 1.0951
 Frc consts  --      6.3835                 6.4150                 6.4779
 IR Inten    --     40.7925                40.3991                53.6193

                     70                     71                     72
                      A                      A                      A
 Frequencies --   3214.0952              3244.8734              3679.6781
 Red. masses --      1.0928                 1.0958                 1.0796
 Frc consts  --      6.6515                 6.7981                 8.6128
 IR Inten    --      5.5165                 1.3994                53.4421

 - Thermochemistry -
 -------------------
 Temperature   298.150 Kelvin.  Pressure   1.00000 Atm.
 Atom     1 has atomic number  6 and mass  12.00000

 Molecular mass:   223.06333 amu.
 Principal axes and moments of inertia in atomic units:
                           1         2         3
     Eigenvalues --  1646.896996187.018437332.50707
           X            0.80766   0.57163   0.14467
           Y           -0.48078   0.78045  -0.39968
           Z           -0.34138   0.25325   0.90517
 This molecule is an asymmetric top.
 Rotational symmetry number  1.
 Warning -- assumption of classical behavior for rotation
           may cause significant error
 Rotational temperatures (Kelvin)      0.05259     0.01400     0.01181
 Rotational constants (GHZ):           1.09584     0.29170     0.24613
 Zero-point vibrational energy     503731.2 (Joules/Mol)
                                  120.39465 (Kcal/Mol)
 Warning -- explicit consideration of  20 degrees of freedom as
           vibrations may cause significant error
 Vibrational temperatures:     55.33   106.68   120.92   189.74   256.11
          (Kelvin)            300.99   310.47   361.55   392.36   466.80
                              522.07   595.46   612.38   639.98   690.87
                              697.92   788.78   813.07   834.05   877.17
                              910.89   938.37   979.23  1053.38  1082.17
                             1093.43  1117.06  1134.12  1182.81  1190.45
                             1203.44  1232.19  1276.61  1279.56  1321.45
                             1375.40  1381.34  1412.33  1484.06  1548.30
                             1580.35  1601.08  1652.42  1684.45  1726.69
                             1784.34  1798.05  1820.66  1880.06  1922.30
                             1946.52  1969.84  2048.14  2072.59  2120.34
                             2141.91  2163.97  2179.11  2194.08  2254.74
                             2307.43  2352.80  2370.73  4504.72  4517.72
                             4525.18  4536.32  4537.95  4558.84  4624.37
                             4668.65  5294.24

 Zero-point correction=                           0.191861 (Hartree/Particle)
 Thermal correction to Energy=                    0.204864
 Thermal correction to Enthalpy=                  0.205809
 Thermal correction to Gibbs Free Energy=         0.151252
 Sum of electronic and zero-point Energies=           -744.164628
 Sum of electronic and thermal Energies=              -744.151624
 Sum of electronic and thermal Enthalpies=            -744.150680
 Sum of electronic and thermal Free Energies=         -744.205237

                     E (Thermal)             CV                S
                      KCal/Mol        Cal/Mol-Kelvin    Cal/Mol-Kelvin
 Total                  128.554             52.242            114.825
 Electronic               0.000              0.000              1.377
 Translational            0.889              2.981             42.109
 Rotational               0.889              2.981             32.680
 Vibrational            126.777             46.280             38.658
 Vibration     1          0.594              1.982              5.337
 Vibration     2          0.599              1.966              4.040
 Vibration     3          0.601              1.960              3.794
 Vibration     4          0.612              1.921              2.919
 Vibration     5          0.628              1.869              2.349
 Vibration     6          0.642              1.827              2.051
 Vibration     7          0.645              1.817              1.994
 Vibration     8          0.663              1.761              1.721
 Vibration     9          0.676              1.724              1.579
 Vibration    10          0.709              1.627              1.288
 Vibration    11          0.737              1.549              1.110
 Vibration    12          0.777              1.440              0.913
 Vibration    13          0.787              1.414              0.873
 Vibration    14          0.804              1.372              0.812
 Vibration    15          0.837              1.294              0.710
 Vibration    16          0.841              1.283              0.696
 Vibration    17          0.903              1.144              0.548
 Vibration    18          0.921              1.107              0.514
 Vibration    19          0.936              1.075              0.486
 Vibration    20          0.969              1.011              0.433

 Optimization completed.
    -- Stationary point found.
 Normal termination of Gaussian 16 at Wed Dec 20 03:15:23 2023.
