 Gaussian 16, Revision A.03,
 Gaussian 16:  ES64L-G16RevA.03 25-Dec-2016

 ----------------------------------------------------------------------
 #P UB3LYP/genecp nosym opt freq SCRF=(PCM,Solvent=n,n-DiMethylFormamid
 e)
 ----------------------------------------------------------------------

 -------
 Reduced
 -------
 Symbolic Z-matrix:
 Charge = -2 Multiplicity = 1

 SCF Done:  E(UB3LYP) =  -986.390805085     A.U. after   19 cycles
 SCF Done:  E(UB3LYP) =  -986.391692012     A.U. after   13 cycles
 SCF Done:  E(UB3LYP) =  -986.391821441     A.U. after   13 cycles
 SCF Done:  E(UB3LYP) =  -986.391823941     A.U. after   11 cycles
 SCF Done:  E(UB3LYP) =  -986.391825696     A.U. after   11 cycles
 Optimization completed.
    -- Stationary point found.
 Normal termination of Gaussian 16 at Sat Feb 10 22:22:48 2024.

 ------------------------------------------------------------------
 #P Geom=AllCheck Guess=TCheck SCRF=Check GenChk UB3LYP/GenECP Freq
 ------------------------------------------------------------------

 Structure from the checkpoint file:  "119-an.chk"
 -------
 Reduced
 -------
 Charge = -2 Multiplicity = 1

                          Input orientation:
 ---------------------------------------------------------------------
 Center     Atomic      Atomic             Coordinates (Angstroms)
 Number     Number       Type             X           Y           Z
 ---------------------------------------------------------------------
      1          6           0        6.891473   -1.642524   -0.251538
      2          6           0        7.453635   -0.690069   -1.069868
      3          6           0        6.633126    0.322923   -1.639678
      4          6           0        5.284412    0.340756   -1.367362
      5          6           0        4.663593   -0.626702   -0.526339
      6          6           0        5.500082   -1.659048    0.054768
      7          6           0        4.975135   -2.685193    0.918854
      8          6           0        3.562639   -2.609670    1.161249
      9          6           0        2.721905   -1.575792    0.580399
     10          6           0        3.245416   -0.553360   -0.281101
     11          6           0        2.948793   -3.583421    2.004394
     12          6           0        1.604848   -3.548225    2.263359
     13          6           0        0.762211   -2.544941    1.706790
     14          6           0        1.333427   -1.596662    0.890054
     15          8           0        5.727745   -3.610179    1.441205
     16          8           0        2.494751    0.372152   -0.803221
     17          1           0        7.503693   -2.420847    0.190297
     18          1           0        4.647628    1.107855   -1.793874
     19          1           0        3.590513   -4.346832    2.425957
     20          1           0        0.715269   -0.820575    0.451998
     21         53           0        0.726391   -5.022376    3.527675
     22          1           0        8.518347   -0.708502   -1.282187
     23          1           0        7.072287    1.077030   -2.285758
     24          1           0       -0.299318   -2.529808    1.921384
 ---------------------------------------------------------------------

 SCF Done:  E(UB3LYP) =  -986.391825696     A.U. after    1 cycles

 Alpha  occ. eigenvalues --  -19.02020 -19.01984 -10.19816 -10.17617 -10.17576
 Alpha  occ. eigenvalues --  -10.15992 -10.15850 -10.15544 -10.15106 -10.15057
 Alpha  occ. eigenvalues --  -10.14833 -10.14815 -10.14334 -10.14082 -10.14081
 Alpha  occ. eigenvalues --  -10.14032  -6.83347  -4.85699  -4.84660  -4.84660
 Alpha  occ. eigenvalues --   -1.90520  -1.90174  -1.90164  -1.89276  -1.89275
 Alpha  occ. eigenvalues --   -0.93398  -0.92971  -0.83776  -0.82551  -0.76305
 Alpha  occ. eigenvalues --   -0.73773  -0.72494  -0.71784  -0.67791  -0.63963
 Alpha  occ. eigenvalues --   -0.61111  -0.58567  -0.56451  -0.52977  -0.50914
 Alpha  occ. eigenvalues --   -0.49125  -0.44491  -0.44269  -0.43083  -0.41880
 Alpha  occ. eigenvalues --   -0.40584  -0.39964  -0.38531  -0.37852  -0.36994
 Alpha  occ. eigenvalues --   -0.36182  -0.35074  -0.34702  -0.32513  -0.32332
 Alpha  occ. eigenvalues --   -0.31323  -0.31254  -0.29999  -0.26943  -0.25954
 Alpha  occ. eigenvalues --   -0.23845  -0.22795  -0.22331  -0.21537  -0.20257
 Alpha  occ. eigenvalues --   -0.19686  -0.11109
 Alpha virt. eigenvalues --   -0.03313  -0.02612  -0.00325   0.00110   0.00852
 Alpha virt. eigenvalues --    0.01393   0.01566   0.02595   0.02749   0.04845
 Alpha virt. eigenvalues --    0.04994   0.05240   0.05359   0.06150   0.06865

  Beta  occ. eigenvalues --  -19.02020 -19.01984 -10.19816 -10.17617 -10.17576
  Beta  occ. eigenvalues --  -10.15992 -10.15850 -10.15544 -10.15106 -10.15057
  Beta  occ. eigenvalues --  -10.14833 -10.14815 -10.14334 -10.14082 -10.14081
  Beta  occ. eigenvalues --  -10.14032  -6.83347  -4.85699  -4.84660  -4.84660
  Beta  occ. eigenvalues --   -1.90520  -1.90174  -1.90164  -1.89276  -1.89275
  Beta  occ. eigenvalues --   -0.93398  -0.92971  -0.83776  -0.82551  -0.76305
  Beta  occ. eigenvalues --   -0.73773  -0.72494  -0.71784  -0.67791  -0.63963
  Beta  occ. eigenvalues --   -0.61111  -0.58567  -0.56451  -0.52977  -0.50914
  Beta  occ. eigenvalues --   -0.49125  -0.44491  -0.44269  -0.43083  -0.41880
  Beta  occ. eigenvalues --   -0.40584  -0.39964  -0.38531  -0.37852  -0.36994
  Beta  occ. eigenvalues --   -0.36182  -0.35074  -0.34702  -0.32513  -0.32332
  Beta  occ. eigenvalues --   -0.31323  -0.31254  -0.29999  -0.26943  -0.25954
  Beta  occ. eigenvalues --   -0.23845  -0.22795  -0.22331  -0.21537  -0.20257
  Beta  occ. eigenvalues --   -0.19686  -0.11109
  Beta virt. eigenvalues --   -0.03313  -0.02612  -0.00325   0.00110   0.00852
  Beta virt. eigenvalues --    0.01393   0.01566   0.02595   0.02749   0.04845
  Beta virt. eigenvalues --    0.04994   0.05240   0.05359   0.06150   0.06865

 Mulliken charges and spin densities:
               1          2
     1  C   -0.021468  -0.000000
     2  C   -0.490831  -0.000000
     3  C   -0.483941   0.000000
     4  C   -0.021162   0.000000
     5  C    0.256102   0.000000
     6  C    0.310027   0.000000
     7  C   -0.336277   0.000000
     8  C    0.255166   0.000000
     9  C    0.122466  -0.000000
    10  C   -0.431398  -0.000000
    11  C    0.039820   0.000000
    12  C    0.170329  -0.000000
    13  C   -0.800457  -0.000000
    14  C   -0.079693   0.000000
    15  O   -0.669425  -0.000000
    16  O   -0.668018   0.000000
    17  H    0.147089  -0.000000
    18  H    0.147719   0.000000
    19  H    0.121262  -0.000000
    20  H    0.156887   0.000000
    21  I   -0.181236   0.000000
    22  H    0.159540   0.000000
    23  H    0.159314  -0.000000
    24  H    0.138186  -0.000000
 Sum of Mulliken charges =  -2.00000  -0.00000

 Dipole moment (field-independent basis, Debye):
    X=            -37.4746    Y=             17.9958    Z=             -5.2806  Tot=             41.9056
 Quadrupole moment (field-independent basis, Debye-Ang):
   XX=           -307.0501   YY=           -199.9479   ZZ=           -151.8713
   XY=             79.5941   XZ=            -21.4942   YZ=             32.8983

  Exact polarizability: 540.168  69.680 388.313-126.361-164.837 331.503
 Approx polarizability: 596.821  46.194 431.156-116.614-175.676 358.696

                      1                      2                      3
                      A                      A                      A
 Frequencies --     34.6154                70.8502               103.4208
 Red. masses --      8.4105                 5.9910                10.1757
 Frc consts  --      0.0059                 0.0177                 0.0641
 IR Inten    --     11.1315                11.2331                 5.1962

                      4                      5                      6
                      A                      A                      A
 Frequencies --    124.7136               156.8636               182.0285
 Red. masses --      4.3378                 6.3922                16.5633
 Frc consts  --      0.0398                 0.0927                 0.3234
 IR Inten    --      0.8569                 4.8183                 7.4288

                      7                      8                      9
                      A                      A                      A
 Frequencies --    189.9639               264.1053               266.7351
 Red. masses --      6.4802                 5.7804                 5.9618
 Frc consts  --      0.1378                 0.2376                 0.2499
 IR Inten    --      3.6763                14.8979                 2.4504

                     10                     11                     12
                      A                      A                      A
 Frequencies --    318.9829               364.9967               405.8720
 Red. masses --      7.0062                11.2454                 7.6370
 Frc consts  --      0.4200                 0.8827                 0.7412
 IR Inten    --      3.1779                 1.2396                 0.2786

                     13                     14                     15
                      A                      A                      A
 Frequencies --    408.2679               415.5480               455.0975
 Red. masses --      7.0654                 3.3171                 7.7264
 Frc consts  --      0.6939                 0.3375                 0.9428
 IR Inten    --      1.6400                11.3291                 3.7152

                     16                     17                     18
                      A                      A                      A
 Frequencies --    472.0944               503.1667               512.4340
 Red. masses --      2.9385                11.2943                 4.5310
 Frc consts  --      0.3859                 1.6847                 0.7010
 IR Inten    --      0.1720                 2.1012                 6.6690

                     19                     20                     21
                      A                      A                      A
 Frequencies --    619.5612               620.4003               629.3075
 Red. masses --      6.9116                 4.6074                 7.2341
 Frc consts  --      1.5631                 1.0448                 1.6880
 IR Inten    --    121.8621                 4.8994                12.7358

                     22                     23                     24
                      A                      A                      A
 Frequencies --    681.9539               685.8428               690.6510
 Red. masses --      7.2568                 6.4673                 2.3229
 Frc consts  --      1.9884                 1.7923                 0.6528
 IR Inten    --     21.7129                21.3017               133.8799

                     25                     26                     27
                      A                      A                      A
 Frequencies --    714.3582               765.5877               783.1802
 Red. masses --      3.7676                 1.5280                 2.0507
 Frc consts  --      1.1328                 0.5277                 0.7411
 IR Inten    --      2.5438                 1.3418                60.4194

                     28                     29                     30
                      A                      A                      A
 Frequencies --    812.5131               816.5652               859.9253
 Red. masses --      6.7745                 2.6160                 1.8937
 Frc consts  --      2.6351                 1.0277                 0.8250
 IR Inten    --     67.8682                 9.3657                 0.4566

                     31                     32                     33
                      A                      A                      A
 Frequencies --    919.2539               919.4400               940.2589
 Red. masses --      1.4066                 6.2445                 7.5983
 Frc consts  --      0.7003                 3.1102                 3.9579
 IR Inten    --     16.2769                33.9336                82.8524

                     34                     35                     36
                      A                      A                      A
 Frequencies --    967.6908               975.6890               985.0501
 Red. masses --      1.3183                 1.3517                 1.2661
 Frc consts  --      0.7273                 0.7582                 0.7238
 IR Inten    --      1.2309                 3.6004                 0.6766

                     37                     38                     39
                      A                      A                      A
 Frequencies --   1018.6089              1039.5802              1084.5870
 Red. masses --      2.0773                 2.1463                 4.1040
 Frc consts  --      1.2699                 1.3666                 2.8444
 IR Inten    --    109.6462                17.9457               946.0499

                     40                     41                     42
                      A                      A                      A
 Frequencies --   1110.4630              1130.4870              1159.0915
 Red. masses --      1.8375                 1.6521                 2.0328
 Frc consts  --      1.3350                 1.2440                 1.6091
 IR Inten    --    199.9277               220.8031               255.8428

                     43                     44                     45
                      A                      A                      A
 Frequencies --   1174.0534              1200.5340              1207.2140
 Red. masses --      2.0464                 1.5863                 2.2062
 Frc consts  --      1.6619                 1.3470                 1.8944
 IR Inten    --    248.2353                 4.0066               306.2768

                     46                     47                     48
                      A                      A                      A
 Frequencies --   1241.1484              1308.5059              1323.4318
 Red. masses --      2.4557                 5.2827                 2.7057
 Frc consts  --      2.2288                 5.3292                 2.7921
 IR Inten    --    548.4448               145.7100               920.8082

                     49                     50                     51
                      A                      A                      A
 Frequencies --   1349.1303              1354.2409              1426.5622
 Red. masses --      7.0361                 2.7554                 3.0851
 Frc consts  --      7.5455                 2.9774                 3.6992
 IR Inten    --    839.4544              1517.2050               193.9901

                     52                     53                     54
                      A                      A                      A
 Frequencies --   1447.0419              1453.7550              1472.5630
 Red. masses --      6.9487                 2.9067                 2.7653
 Frc consts  --      8.5726                 3.6194                 3.5330
 IR Inten    --      0.6639               196.0918                41.7908

                     55                     56                     57
                      A                      A                      A
 Frequencies --   1496.1215              1519.3083              1565.9404
 Red. masses --      5.2224                 5.3549                 6.1639
 Frc consts  --      6.8873                 7.2827                 8.9054
 IR Inten    --      3.7393                70.4368               150.5708

                     58                     59                     60
                      A                      A                      A
 Frequencies --   1575.9945              1610.1192              3139.5334
 Red. masses --      8.2493                 5.3053                 1.0847
 Frc consts  --     12.0720                 8.1035                 6.2990
 IR Inten    --      0.2218                 8.5410                23.7462

                     61                     62                     63
                      A                      A                      A
 Frequencies --   3154.5002              3164.4823              3171.3105
 Red. masses --      1.0888                 1.0862                 1.0914
 Frc consts  --      6.3838                 6.4086                 6.4672
 IR Inten    --     28.2727                10.9415                37.8055

                     64                     65                     66
                      A                      A                      A
 Frequencies --   3175.5302              3184.7944              3188.0609
 Red. masses --      1.0943                 1.0937                 1.0899
 Frc consts  --      6.5019                 6.5360                 6.5268
 IR Inten    --     99.8691                27.4950                16.5291

 - Thermochemistry -
 -------------------
 Temperature   298.150 Kelvin.  Pressure   1.00000 Atm.
 Atom     1 has atomic number  6 and mass  12.00000

 Molecular mass:   333.94500 amu.
 Principal axes and moments of inertia in atomic units:
                           1         2         3
     Eigenvalues --  1882.24070********************
           X            0.63167   0.75690   0.16765
           Y            0.55554  -0.59278   0.58309
           Z           -0.54072   0.27518   0.79492
 This molecule is an asymmetric top.
 Rotational symmetry number  1.
 Warning -- assumption of classical behavior for rotation
           may cause significant error
 Rotational temperatures (Kelvin)      0.04602     0.00657     0.00575
 Rotational constants (GHZ):           0.95883     0.13687     0.11978
 Zero-point vibrational energy     431156.2 (Joules/Mol)
                                  103.04879 (Kcal/Mol)
 Warning -- explicit consideration of  20 degrees of freedom as
           vibrations may cause significant error
 Vibrational temperatures:     49.80   101.94   148.80   179.44   225.69
          (Kelvin)            261.90   273.32   379.99   383.77   458.95
                              525.15   583.96   587.41   597.88   654.78
                              679.24   723.94   737.28   891.41   892.62
                              905.43   981.18   986.77   993.69  1027.80
                             1101.51  1126.82  1169.03  1174.86  1237.24
                             1322.60  1322.87  1352.82  1392.29  1403.80
                             1417.27  1465.55  1495.72  1560.48  1597.71
                             1626.52  1667.67  1689.20  1727.30  1736.91
                             1785.74  1882.65  1904.12  1941.10  1948.45
                             2052.50  2081.97  2091.63  2118.69  2152.59
                             2185.95  2253.04  2267.50  2316.60  4517.09
                             4538.62  4552.98  4562.81  4568.88  4582.21
                             4586.91

 Zero-point correction=                           0.164219 (Hartree/Particle)
 Thermal correction to Energy=                    0.177303
 Thermal correction to Enthalpy=                  0.178247
 Thermal correction to Gibbs Free Energy=         0.122657
 Sum of electronic and zero-point Energies=           -986.227607
 Sum of electronic and thermal Energies=              -986.214523
 Sum of electronic and thermal Enthalpies=            -986.213579
 Sum of electronic and thermal Free Energies=         -986.269168

                     E (Thermal)             CV                S
                      KCal/Mol        Cal/Mol-Kelvin    Cal/Mol-Kelvin
 Total                  111.259             51.408            116.998
 Electronic               0.000              0.000              0.000
 Translational            0.889              2.981             43.312
 Rotational               0.889              2.981             34.280
 Vibrational            109.482             45.446             39.406
 Vibration     1          0.594              1.983              5.546
 Vibration     2          0.598              1.968              4.130
 Vibration     3          0.605              1.946              3.389
 Vibration     4          0.610              1.928              3.026
 Vibration     5          0.621              1.895              2.587
 Vibration     6          0.630              1.864              2.308
 Vibration     7          0.633              1.854              2.228
 Vibration     8          0.671              1.739              1.634
 Vibration     9          0.672              1.734              1.617
 Vibration    10          0.705              1.637              1.315
 Vibration    11          0.738              1.544              1.101
 Vibration    12          0.771              1.457              0.941
 Vibration    13          0.773              1.452              0.933
 Vibration    14          0.779              1.436              0.907
 Vibration    15          0.813              1.350              0.781
 Vibration    16          0.829              1.312              0.732
 Vibration    17          0.858              1.243              0.650
 Vibration    18          0.868              1.222              0.628
 Vibration    19          0.980              0.991              0.417
 Vibration    20          0.980              0.989              0.416

 Optimization completed.
    -- Stationary point found.
 Normal termination of Gaussian 16 at Sat Feb 10 23:27:47 2024.
