 Q-Chem 5.4, Q-Chem, Inc., Pleasanton, CA (2021)
 Q-Chem 5.4.0 for Intel X86 EM64T Linux

User input:
--------------------------------------------------------------
$molecule
0 1
C                  1.2095470000     -0.6456890000      1.8476190000
C                  0.8118800000     -1.6720200000      0.8487220000
C                 -0.2762680000     -1.5371220000      0.0804520000
C                 -1.1420300000     -0.3385180000      0.1827590000
C                 -0.7374360000      0.7160110000      1.1553740000
C                  0.3545560000      0.5776180000      1.9170940000
O                  2.1690340000     -0.8186640000      2.5737070000
O                 -2.1452900000     -0.2106800000     -0.4948320000
S                  0.8374810000      1.9822650000      2.9902290000
C                  0.7958900000      1.3396870000      4.6691890000
C                 -0.3985420000      1.4167100000      5.3849210000
C                  1.9606010000      0.8179510000      5.2280660000
C                  1.9189240000      0.3536480000      6.5401550000
C                 -0.4251430000      0.9423840000      6.6937970000
C                  0.7304910000      0.4126900000      7.2681450000
O                  2.2119620000      2.3371210000      2.6415560000
O                 -0.2531670000      2.9541530000      2.8575390000
H                  1.4585170000     -2.5412440000      0.8005630000
H                 -0.5794200000     -2.2863050000     -0.6422790000
H                 -1.3596130000      1.6028010000      1.2113560000
H                 -1.2763650000      1.8580520000      4.9301090000
H                  2.8697280000      0.7799530000      4.6437220000
H                  2.8159210000     -0.0512880000      6.9936100000
H                 -1.3430910000      0.9982630000      7.2669710000
H                  0.7057500000      0.0487630000      8.2890750000
$end

$rem
BASIS  =  6-311++G(d,p)
GUI  =  2
JOB_TYPE  =  SP
METHOD  =  B3LYP
SCF_CONVERGENCE  = 8
SOLVENT_METHOD = sm12
$end

$smx
solvent dimethylformamide
charges CM5
$end

--------------------------------------------------------------

             Standard Nuclear Orientation (Angstroms)
    I     Atom           X                Y                Z
 ----------------------------------------------------------------
    1      C       1.2095470000    -0.6456890000     1.8476190000
    2      C       0.8118800000    -1.6720200000     0.8487220000
    3      C      -0.2762680000    -1.5371220000     0.0804520000
    4      C      -1.1420300000    -0.3385180000     0.1827590000
    5      C      -0.7374360000     0.7160110000     1.1553740000
    6      C       0.3545560000     0.5776180000     1.9170940000
    7      O       2.1690340000    -0.8186640000     2.5737070000
    8      O      -2.1452900000    -0.2106800000    -0.4948320000
    9      S       0.8374810000     1.9822650000     2.9902290000
   10      C       0.7958900000     1.3396870000     4.6691890000
   11      C      -0.3985420000     1.4167100000     5.3849210000
   12      C       1.9606010000     0.8179510000     5.2280660000
   13      C       1.9189240000     0.3536480000     6.5401550000
   14      C      -0.4251430000     0.9423840000     6.6937970000
   15      C       0.7304910000     0.4126900000     7.2681450000
   16      O       2.2119620000     2.3371210000     2.6415560000
   17      O      -0.2531670000     2.9541530000     2.8575390000
   18      H       1.4585170000    -2.5412440000     0.8005630000
   19      H      -0.5794200000    -2.2863050000    -0.6422790000
   20      H      -1.3596130000     1.6028010000     1.2113560000
   21      H      -1.2763650000     1.8580520000     4.9301090000
   22      H       2.8697280000     0.7799530000     4.6437220000
   23      H       2.8159210000    -0.0512880000     6.9936100000
   24      H      -1.3430910000     0.9982630000     7.2669710000
   25      H       0.7057500000     0.0487630000     8.2890750000
 ----------------------------------------------------------------

   16   -1161.2979985607      2.09e-09  Convergence criterion met
 Total energy in the final basis set =    -1161.3264625428

                    Orbital Energies (a.u.)
 --------------------------------------------------------------

 Alpha MOs
 -- Occupied --
-89.0691 -19.1530 -19.1530 -19.1331 -19.1329 -10.3039 -10.2986 -10.2506
-10.2354 -10.2248 -10.2204 -10.2186 -10.2044 -10.2022 -10.1967 -10.1947
-10.1940  -8.1330  -6.0955  -6.0949  -6.0941  -1.1295  -1.0860  -1.0826
 -1.0264  -0.8870  -0.8827  -0.8179  -0.7897  -0.7727  -0.7323  -0.6980
 -0.6491  -0.6345  -0.6316  -0.5951  -0.5555  -0.5395  -0.5265  -0.5106
 -0.4939  -0.4876  -0.4870  -0.4663  -0.4632  -0.4614  -0.4595  -0.4471
 -0.4426  -0.4333  -0.4220  -0.3958  -0.3884  -0.3697  -0.3578  -0.3484
 -0.3360  -0.3253  -0.3232  -0.3149  -0.3026  -0.2889  -0.2816  -0.2769

          Ground-State Mulliken Net Atomic Charges

     Atom                 Charge (a.u.)
  ----------------------------------------
      1 C                    -0.968886
      2 C                     0.648356
      3 C                     0.898949
      4 C                    -0.685781
      5 C                    -0.126249
      6 C                     0.080673
      7 O                    -0.269696
      8 O                    -0.299042
      9 S                    -0.431996
     10 C                    -0.217046
     11 C                     0.065099
     12 C                    -0.751242
     13 C                    -0.113545
     14 C                    -0.093752
     15 C                     0.233257
     16 O                    -0.230722
     17 O                    -0.186453
     18 H                     0.369303
     19 H                     0.373923
     20 H                     0.293739
     21 H                     0.281862
     22 H                     0.220390
     23 H                     0.297436
     24 H                     0.303417
     25 H                     0.308007
  ----------------------------------------
  Sum of atomic charges =     0.000000

                    Cartesian Multipole Moments
 -----------------------------------------------------------------
    Charge (ESU x 10^10)
                 0.0000
    Dipole Moment (Debye)
         X      -0.8521      Y      -5.3754      Z       2.7995
       Tot       6.1203
    Quadrupole Moments (Debye-Ang)
        XX    -114.7168     XY      -6.7534     YY    -115.5500
        XZ      -7.7240     YZ      -7.9401     ZZ     -70.6220

 Total job time:  517.84s(wall), 3873.84s(cpu)
        *  Thank you very much for using Q-Chem.  Have a nice day.  *
