 Q-Chem 5.4, Q-Chem, Inc., Pleasanton, CA (2021)
 Q-Chem 5.4.0 for Intel X86 EM64T Linux

User input:
--------------------------------------------------------------
$molecule
0 1
O                  4.5484120000     -1.4034570000     -0.8459570000
C                  3.4516640000     -0.6522260000     -0.5244250000
C                  3.5090420000      0.6695460000     -0.1537530000
C                  2.3272490000      1.3606130000      0.1589920000
O                  2.4499190000      2.6434190000      0.5120530000
C                  1.0849630000      0.6920100000      0.0906110000
C                 -0.1303500000      1.4441030000      0.4238880000
O                 -0.0466130000      2.6393520000      0.7557850000
C                 -1.4373080000      0.7595920000      0.3572700000
C                 -2.6338520000      1.4281000000      0.6648890000
O                 -2.6281860000      2.7338840000      1.0358730000
C                 -3.8537160000      0.7316990000      0.5863980000
C                 -3.9061850000     -0.5911530000      0.2150350000
C                 -2.7269860000     -1.2872970000     -0.0987850000
O                 -2.8509200000     -2.5722890000     -0.4522610000
C                 -1.4879170000     -0.6126730000     -0.0283370000
C                 -0.2654820000     -1.3672650000     -0.3629720000
O                 -0.3465440000     -2.5596600000     -0.6945130000
C                  1.0394250000     -0.6812350000     -0.2958360000
C                  2.2240270000     -1.3572780000     -0.6045910000
O                  2.2559170000     -2.6545370000     -0.9769720000
H                  5.3565700000     -0.8844150000     -0.7774140000
H                  4.4514620000      1.2029310000     -0.0944710000
H                  1.5227570000      2.9646740000      0.6943980000
H                 -3.5347350000      3.0145400000      1.2044190000
H                 -4.7732970000      1.2582600000      0.8264940000
H                 -4.8477960000     -1.1229680000      0.1561000000
H                 -1.9306700000     -2.8999140000     -0.6356150000
H                  3.1791510000     -2.8963560000     -1.1363040000
$end

$rem
BASIS  =  6-311++G(d,p)
GUI  =  2
JOB_TYPE  =  SP
METHOD  =  B3LYP
SCF_CONVERGENCE  = 8
SOLVENT_METHOD = sm12
$end

$smx
solvent dimethylformamide
charges CM5
$end

--------------------------------------------------------------

             Standard Nuclear Orientation (Angstroms)
    I     Atom           X                Y                Z
 ----------------------------------------------------------------
    1      O       4.5484120000    -1.4034570000    -0.8459570000
    2      C       3.4516640000    -0.6522260000    -0.5244250000
    3      C       3.5090420000     0.6695460000    -0.1537530000
    4      C       2.3272490000     1.3606130000     0.1589920000
    5      O       2.4499190000     2.6434190000     0.5120530000
    6      C       1.0849630000     0.6920100000     0.0906110000
    7      C      -0.1303500000     1.4441030000     0.4238880000
    8      O      -0.0466130000     2.6393520000     0.7557850000
    9      C      -1.4373080000     0.7595920000     0.3572700000
   10      C      -2.6338520000     1.4281000000     0.6648890000
   11      O      -2.6281860000     2.7338840000     1.0358730000
   12      C      -3.8537160000     0.7316990000     0.5863980000
   13      C      -3.9061850000    -0.5911530000     0.2150350000
   14      C      -2.7269860000    -1.2872970000    -0.0987850000
   15      O      -2.8509200000    -2.5722890000    -0.4522610000
   16      C      -1.4879170000    -0.6126730000    -0.0283370000
   17      C      -0.2654820000    -1.3672650000    -0.3629720000
   18      O      -0.3465440000    -2.5596600000    -0.6945130000
   19      C       1.0394250000    -0.6812350000    -0.2958360000
   20      C       2.2240270000    -1.3572780000    -0.6045910000
   21      O       2.2559170000    -2.6545370000    -0.9769720000
   22      H       5.3565700000    -0.8844150000    -0.7774140000
   23      H       4.4514620000     1.2029310000    -0.0944710000
   24      H       1.5227570000     2.9646740000     0.6943980000
   25      H      -3.5347350000     3.0145400000     1.2044190000
   26      H      -4.7732970000     1.2582600000     0.8264940000
   27      H      -4.8477960000    -1.1229680000     0.1561000000
   28      H      -1.9306700000    -2.8999140000    -0.6356150000
   29      H       3.1791510000    -2.8963560000    -1.1363040000
 ----------------------------------------------------------------

   15   -1065.1945419240      3.17e-09  Convergence criterion met
 Total energy in the final basis set =    -1065.2357957478

                    Orbital Energies (a.u.)
 --------------------------------------------------------------

 Alpha MOs
 -- Occupied --
-19.1912 -19.1729 -19.1705 -19.1558 -19.1553 -19.1302 -19.1253 -10.2861
-10.2821 -10.2729 -10.2679 -10.2670 -10.2656 -10.2624 -10.2145 -10.2115
-10.2101 -10.2054 -10.2048 -10.2012 -10.2000  -1.1124  -1.0897  -1.0878
 -1.0844  -1.0792  -1.0534  -1.0495  -0.8919  -0.8768  -0.8188  -0.7836
 -0.7704  -0.7631  -0.7045  -0.6839  -0.6737  -0.6390  -0.6261  -0.6051
 -0.5868  -0.5772  -0.5665  -0.5318  -0.5266  -0.5115  -0.5003  -0.4900
 -0.4812  -0.4781  -0.4590  -0.4568  -0.4540  -0.4511  -0.4443  -0.4374
 -0.4249  -0.4162  -0.4115  -0.4101  -0.3956  -0.3947  -0.3910  -0.3885
 -0.3818  -0.3776  -0.3331  -0.3260  -0.2892  -0.2851  -0.2714  -0.2713
 -0.2386  -0.2254

          Ground-State Mulliken Net Atomic Charges

     Atom                 Charge (a.u.)
  ----------------------------------------
      1 O                    -0.234137
      2 C                     1.019643
      3 C                     1.424196
      4 C                    -0.521878
      5 O                    -0.374304
      6 C                    -0.318142
      7 C                    -1.264882
      8 O                    -0.325409
      9 C                    -0.425375
     10 C                     0.124895
     11 O                    -0.206610
     12 C                     1.605727
     13 C                     0.722549
     14 C                    -0.793289
     15 O                    -0.376522
     16 C                    -0.268817
     17 C                    -1.183626
     18 O                    -0.320045
     19 C                    -0.303206
     20 C                    -0.407608
     21 O                    -0.275622
     22 H                     0.369247
     23 H                     0.331516
     24 H                     0.323801
     25 H                     0.346927
     26 H                     0.387732
     27 H                     0.276184
     28 H                     0.317165
     29 H                     0.349890
  ----------------------------------------
  Sum of atomic charges =     0.000000

                    Cartesian Multipole Moments
 -----------------------------------------------------------------
    Charge (ESU x 10^10)
                 0.0000
    Dipole Moment (Debye)
         X       1.2907      Y       1.1168      Z       0.1909
       Tot       1.7174
    Quadrupole Moments (Debye-Ang)
        XX     -67.1440     XY     -18.0329     YY    -136.4190
        XZ     -10.4274     YZ      -2.5873     ZZ    -120.8425

 Total job time:  745.51s(wall), 5663.02s(cpu)
        *  Thank you very much for using Q-Chem.  Have a nice day.  *
