 Gaussian 16, Revision A.03,
 Gaussian 16:  ES64L-G16RevA.03 25-Dec-2016

 --------------------------------------
 #P UB3LYP/6-311++G(d,p) nosym opt freq
 --------------------------------------

 --------
 Oxidized
 --------
 Symbolic Z-matrix:
 Charge =  0 Multiplicity = 1

 SCF Done:  E(UB3LYP) =  -1065.19708587     A.U. after   16 cycles
 Optimization completed.
    -- Stationary point found.
 Normal termination of Gaussian 16 at Sun Jan  7 06:43:46 2024.

 ----------------------------------------------------------------------
 #P Geom=AllCheck Guess=TCheck SCRF=Check GenChk UB3LYP/6-311++G(d,p) F
 req
 ----------------------------------------------------------------------

 Structure from the checkpoint file:  "207.chk"
 --------
 Oxidized
 --------
 Charge =  0 Multiplicity = 1

                          Input orientation:
 ---------------------------------------------------------------------
 Center     Atomic      Atomic             Coordinates (Angstroms)
 Number     Number       Type             X           Y           Z
 ---------------------------------------------------------------------
      1          8           0        4.548412   -1.403457   -0.845957
      2          6           0        3.451664   -0.652226   -0.524425
      3          6           0        3.509042    0.669546   -0.153753
      4          6           0        2.327249    1.360613    0.158992
      5          8           0        2.449919    2.643419    0.512053
      6          6           0        1.084963    0.692010    0.090611
      7          6           0       -0.130350    1.444103    0.423888
      8          8           0       -0.046613    2.639352    0.755785
      9          6           0       -1.437308    0.759592    0.357270
     10          6           0       -2.633852    1.428100    0.664889
     11          8           0       -2.628186    2.733884    1.035873
     12          6           0       -3.853716    0.731699    0.586398
     13          6           0       -3.906185   -0.591153    0.215035
     14          6           0       -2.726986   -1.287297   -0.098785
     15          8           0       -2.850920   -2.572289   -0.452261
     16          6           0       -1.487917   -0.612673   -0.028337
     17          6           0       -0.265482   -1.367265   -0.362972
     18          8           0       -0.346544   -2.559660   -0.694513
     19          6           0        1.039425   -0.681235   -0.295836
     20          6           0        2.224027   -1.357278   -0.604591
     21          8           0        2.255917   -2.654537   -0.976972
     22          1           0        5.356570   -0.884415   -0.777414
     23          1           0        4.451462    1.202931   -0.094471
     24          1           0        1.522757    2.964674    0.694398
     25          1           0       -3.534735    3.014540    1.204419
     26          1           0       -4.773297    1.258260    0.826494
     27          1           0       -4.847796   -1.122968    0.156100
     28          1           0       -1.930670   -2.899914   -0.635615
     29          1           0        3.179151   -2.896356   -1.136304
 ---------------------------------------------------------------------

 SCF Done:  E(UB3LYP) =  -1065.19708587     A.U. after    1 cycles

 Alpha  occ. eigenvalues --  -19.20194 -19.17380 -19.17228 -19.15232 -19.15039
 Alpha  occ. eigenvalues --  -19.12698 -19.12303 -10.28298 -10.27989 -10.27628
 Alpha  occ. eigenvalues --  -10.26766 -10.26667 -10.26636 -10.26095 -10.21390
 Alpha  occ. eigenvalues --  -10.21156 -10.20929 -10.20899 -10.20489 -10.20468
 Alpha  occ. eigenvalues --  -10.20243  -1.11986  -1.09146  -1.08568  -1.08316
 Alpha  occ. eigenvalues --   -1.08021  -1.04930  -1.04652  -0.89218  -0.87753
 Alpha  occ. eigenvalues --   -0.81990  -0.78486  -0.77055  -0.76352  -0.70621
 Alpha  occ. eigenvalues --   -0.68594  -0.67424  -0.63977  -0.62797  -0.60498
 Alpha  occ. eigenvalues --   -0.58960  -0.57849  -0.56541  -0.53299  -0.52789
 Alpha  occ. eigenvalues --   -0.51166  -0.50108  -0.49146  -0.48327  -0.47870
 Alpha  occ. eigenvalues --   -0.45842  -0.45810  -0.45319  -0.45062  -0.44397
 Alpha  occ. eigenvalues --   -0.43416  -0.42702  -0.42352  -0.41353  -0.41001
 Alpha  occ. eigenvalues --   -0.39534  -0.39438  -0.38938  -0.38881  -0.37933
 Alpha  occ. eigenvalues --   -0.37748  -0.33229  -0.32490  -0.29005  -0.28111
 Alpha  occ. eigenvalues --   -0.27460  -0.26803  -0.23695  -0.22497
 Alpha virt. eigenvalues --   -0.11544  -0.05909  -0.04212  -0.03285  -0.02006
 Alpha virt. eigenvalues --   -0.00288   0.00402   0.00731   0.01072   0.02698
 Alpha virt. eigenvalues --    0.02984   0.03669   0.04086   0.04301   0.05085

  Beta  occ. eigenvalues --  -19.20194 -19.17380 -19.17228 -19.15232 -19.15039
  Beta  occ. eigenvalues --  -19.12698 -19.12303 -10.28298 -10.27989 -10.27628
  Beta  occ. eigenvalues --  -10.26766 -10.26667 -10.26636 -10.26095 -10.21390
  Beta  occ. eigenvalues --  -10.21156 -10.20929 -10.20899 -10.20489 -10.20468
  Beta  occ. eigenvalues --  -10.20243  -1.11986  -1.09146  -1.08568  -1.08316
  Beta  occ. eigenvalues --   -1.08021  -1.04930  -1.04652  -0.89218  -0.87753
  Beta  occ. eigenvalues --   -0.81990  -0.78486  -0.77055  -0.76352  -0.70621
  Beta  occ. eigenvalues --   -0.68594  -0.67424  -0.63977  -0.62797  -0.60498
  Beta  occ. eigenvalues --   -0.58960  -0.57849  -0.56541  -0.53299  -0.52789
  Beta  occ. eigenvalues --   -0.51166  -0.50108  -0.49146  -0.48327  -0.47870
  Beta  occ. eigenvalues --   -0.45842  -0.45810  -0.45319  -0.45062  -0.44397
  Beta  occ. eigenvalues --   -0.43416  -0.42702  -0.42352  -0.41353  -0.41001
  Beta  occ. eigenvalues --   -0.39534  -0.39438  -0.38938  -0.38881  -0.37933
  Beta  occ. eigenvalues --   -0.37748  -0.33229  -0.32490  -0.29005  -0.28111
  Beta  occ. eigenvalues --   -0.27460  -0.26803  -0.23695  -0.22497
  Beta virt. eigenvalues --   -0.11544  -0.05909  -0.04212  -0.03285  -0.02006
  Beta virt. eigenvalues --   -0.00288   0.00402   0.00731   0.01072   0.02698
  Beta virt. eigenvalues --    0.02984   0.03669   0.04086   0.04301   0.05085

 Mulliken charges and spin densities:
               1          2
     1  O   -0.281364  -0.000000
     2  C   -0.351931  -0.000000
     3  C    0.344834   0.000000
     4  C   -0.386821   0.000000
     5  O   -0.316630  -0.000000
     6  C    0.616058   0.000000
     7  C   -0.373823   0.000000
     8  O   -0.286047  -0.000000
     9  C    0.279453  -0.000000
    10  C   -0.170910  -0.000000
    11  O   -0.182672   0.000000
    12  C   -0.109800   0.000000
    13  C    0.048694  -0.000000
    14  C   -0.433481   0.000000
    15  O   -0.307132  -0.000000
    16  C    0.612261  -0.000000
    17  C   -0.396733   0.000000
    18  O   -0.268560  -0.000000
    19  C    0.522995  -0.000000
    20  C   -0.447752  -0.000000
    21  O   -0.222225  -0.000000
    22  H    0.288136   0.000000
    23  H    0.176866   0.000000
    24  H    0.370065  -0.000000
    25  H    0.268835  -0.000000
    26  H    0.140901   0.000000
    27  H    0.204965  -0.000000
    28  H    0.360088  -0.000000
    29  H    0.301728  -0.000000
 Sum of Mulliken charges =  -0.00000   0.00000

 Dipole moment (field-independent basis, Debye):
    X=              1.1845    Y=              0.8697    Z=              0.1314  Tot=              1.4754
 Quadrupole moment (field-independent basis, Debye-Ang):
   XX=            -75.6698   YY=           -135.0473   ZZ=           -120.7962
   XY=            -15.7444   XZ=             -8.9239   YZ=             -2.4657

  Exact polarizability: 324.333  -8.312 213.781 -25.504  36.469 101.404
 Approx polarizability: 511.074 -13.453 406.992 -39.915  76.365 168.988

                      1                      2                      3
                      A                      A                      A
 Frequencies --     21.9848                53.8142                89.8671
 Red. masses --      7.7726                 8.5878                10.2513
 Frc consts  --      0.0022                 0.0147                 0.0488
 IR Inten    --      4.8670                 1.3163                 0.0002

                      4                      5                      6
                      A                      A                      A
 Frequencies --    110.2072               141.0334               165.8964
 Red. masses --     10.1085                 7.3121                 6.5536
 Frc consts  --      0.0723                 0.0857                 0.1063
 IR Inten    --      0.0266                 0.4933                 4.2322

                      7                      8                      9
                      A                      A                      A
 Frequencies --    179.0274               211.3443               234.4877
 Red. masses --      7.3177                 2.0471                 1.8546
 Frc consts  --      0.1382                 0.0539                 0.0601
 IR Inten    --      1.5815                34.0714               131.9098

                     10                     11                     12
                      A                      A                      A
 Frequencies --    263.5191               266.2504               291.7178
 Red. masses --      2.6935                 8.5655                 1.4278
 Frc consts  --      0.1102                 0.3578                 0.0716
 IR Inten    --     32.0577                 0.4062                53.3766

                     13                     14                     15
                      A                      A                      A
 Frequencies --    307.8189               348.1404               362.9126
 Red. masses --      7.5075                 5.3374                 5.8210
 Frc consts  --      0.4191                 0.3811                 0.4517
 IR Inten    --      0.4339                 7.2643                 1.6869

                     16                     17                     18
                      A                      A                      A
 Frequencies --    387.2041               394.4777               403.7144
 Red. masses --      7.3498                10.0076                 7.5861
 Frc consts  --      0.6492                 0.9175                 0.7285
 IR Inten    --     14.9520                 5.0022                23.3400

                     19                     20                     21
                      A                      A                      A
 Frequencies --    424.9499               436.3752               446.5113
 Red. masses --      7.4769                 1.3442                11.4971
 Frc consts  --      0.7955                 0.1508                 1.3505
 IR Inten    --      2.2316                34.5159                 4.7278

                     22                     23                     24
                      A                      A                      A
 Frequencies --    448.6604               459.3151               467.9850
 Red. masses --      3.0284                11.6615                 9.9407
 Frc consts  --      0.3592                 1.4495                 1.2827
 IR Inten    --      5.9059                20.3374                11.2849

                     25                     26                     27
                      A                      A                      A
 Frequencies --    482.4337               508.1734               534.6491
 Red. masses --      7.6681                 5.3283                 6.1794
 Frc consts  --      1.0515                 0.8107                 1.0407
 IR Inten    --      3.0990                 2.3226                 0.4063

                     28                     29                     30
                      A                      A                      A
 Frequencies --    539.9770               575.5390               618.9354
 Red. masses --      8.0275                 3.7543                 5.4329
 Frc consts  --      1.3791                 0.7327                 1.2262
 IR Inten    --      0.7315                 8.1575                 2.5746

                     31                     32                     33
                      A                      A                      A
 Frequencies --    641.4086               688.2013               694.0834
 Red. masses --      5.1700                 9.0239                 8.4880
 Frc consts  --      1.2532                 2.5181                 2.4092
 IR Inten    --      1.1443                 0.0836                 0.1393

                     34                     35                     36
                      A                      A                      A
 Frequencies --    703.8183               735.5210               762.1280
 Red. masses --      5.2508                 6.8864                11.0941
 Frc consts  --      1.5325                 2.1950                 3.7966
 IR Inten    --     50.0942                 8.7379                 0.0009

                     37                     38                     39
                      A                      A                      A
 Frequencies --    783.2323               802.2302               829.1069
 Red. masses --      5.3871                 8.2434                 1.6343
 Frc consts  --      1.9471                 3.1257                 0.6619
 IR Inten    --      4.5593                59.5836                75.3210

                     40                     41                     42
                      A                      A                      A
 Frequencies --    843.0720               847.2386               862.0092
 Red. masses --      1.4971                 1.1243                 9.4605
 Frc consts  --      0.6269                 0.4755                 4.1418
 IR Inten    --     80.5939                30.0821                 9.6549

                     43                     44                     45
                      A                      A                      A
 Frequencies --    874.7004               933.2825               946.8160
 Red. masses --      1.0764                 5.5601                 1.2925
 Frc consts  --      0.4852                 2.8534                 0.6827
 IR Inten    --     65.0096                13.1992                 0.0514

                     46                     47                     48
                      A                      A                      A
 Frequencies --    982.1151              1007.5170              1095.3073
 Red. masses --      8.6627                 6.2276                 3.2220
 Frc consts  --      4.9230                 3.7246                 2.2775
 IR Inten    --    106.7865                 4.5137               105.5207

                     49                     50                     51
                      A                      A                      A
 Frequencies --   1159.9561              1174.6472              1195.3971
 Red. masses --      1.4997                 1.5100                 1.9723
 Frc consts  --      1.1889                 1.2275                 1.6605
 IR Inten    --    355.2357                54.5499                 4.6769

                     52                     53                     54
                      A                      A                      A
 Frequencies --   1206.2422              1223.9239              1277.5955
 Red. masses --      2.1635                 1.7614                 5.5027
 Frc consts  --      1.8547                 1.5546                 5.2919
 IR Inten    --    323.2080               179.5043               381.7905

                     55                     56                     57
                      A                      A                      A
 Frequencies --   1280.6456              1297.4223              1308.9307
 Red. masses --      2.2646                 3.0384                 4.4217
 Frc consts  --      2.1882                 3.0134                 4.4635
 IR Inten    --    222.9345               120.8729               344.6252

                     58                     59                     60
                      A                      A                      A
 Frequencies --   1333.6064              1351.0627              1357.0502
 Red. masses --      2.7300                 2.6720                 2.6346
 Frc consts  --      2.8607                 2.8736                 2.8587
 IR Inten    --    186.2927               137.0179               184.9715

                     61                     62                     63
                      A                      A                      A
 Frequencies --   1390.6986              1408.2786              1455.2909
 Red. masses --      5.1666                 5.5714                 4.9617
 Frc consts  --      5.8873                 6.5101                 6.1912
 IR Inten    --      8.4240                55.1710               140.3043

                     64                     65                     66
                      A                      A                      A
 Frequencies --   1490.5831              1492.7869              1503.2864
 Red. masses --      3.3567                 2.8670                 2.8200
 Frc consts  --      4.3941                 3.7642                 3.7548
 IR Inten    --    141.5661                24.0561               397.8797

                     67                     68                     69
                      A                      A                      A
 Frequencies --   1509.9406              1602.6604              1624.4310
 Red. masses --      3.5610                 6.9261                 3.3965
 Frc consts  --      4.7834                10.4814                 5.2806
 IR Inten    --    166.1247                31.0092                34.4875

                     70                     71                     72
                      A                      A                      A
 Frequencies --   1634.5100              1644.5212              1660.0279
 Red. masses --      3.2790                 6.8095                 9.1640
 Frc consts  --      5.1614                10.8504                14.8788
 IR Inten    --     95.9356               166.4218               376.8598

                     73                     74                     75
                      A                      A                      A
 Frequencies --   1688.5564              3141.0534              3149.2597
 Red. masses --      8.0219                 1.0699                 1.0897
 Frc consts  --     13.4759                 6.2194                 6.3678
 IR Inten    --     11.0358               247.9133                17.2107

                     76                     77                     78
                      A                      A                      A
 Frequencies --   3178.3873              3198.6846              3217.0220
 Red. masses --      1.0917                 1.0933                 1.0687
 Frc consts  --      6.4980                 6.5906                 6.5165
 IR Inten    --      6.0347                 0.6019               269.9355

                     79                     80                     81
                      A                      A                      A
 Frequencies --   3761.3662              3813.6246              3842.0532
 Red. masses --      1.0653                 1.0660                 1.0666
 Frc consts  --      8.8797                 9.1348                 9.2764
 IR Inten    --    198.4536                93.9735               155.6818

 - Thermochemistry -
 -------------------
 Temperature   298.150 Kelvin.  Pressure   1.00000 Atm.
 Atom     1 has atomic number  8 and mass  15.99491

 Molecular mass:   288.02700 amu.
 Principal axes and moments of inertia in atomic units:
                           1         2         3
     Eigenvalues --  3479.306366938.20445**********
           X            0.98327   0.15603   0.09397
           Y           -0.12533   0.95395  -0.27254
           Z           -0.13216   0.25620   0.95755
 This molecule is an asymmetric top.
 Rotational symmetry number  1.
 Warning -- assumption of classical behavior for rotation
           may cause significant error
 Rotational temperatures (Kelvin)      0.02489     0.01248     0.00831
 Rotational constants (GHZ):           0.51871     0.26012     0.17324
 Zero-point vibrational energy     525054.2 (Joules/Mol)
                                  125.49097 (Kcal/Mol)
 Warning -- explicit consideration of  30 degrees of freedom as
           vibrations may cause significant error
 Vibrational temperatures:     31.63    77.43   129.30   158.56   202.92
          (Kelvin)            238.69   257.58   304.08   337.38   379.15
                              383.07   419.72   442.88   500.90   522.15
                              557.10   567.57   580.86   611.41   627.85
                              642.43   645.52   660.85   673.33   694.11
                              731.15   769.24   776.91   828.07   890.51
                              922.84   990.17   998.63  1012.64  1058.25
                             1096.53  1126.90  1154.23  1192.90  1212.99
                             1218.99  1240.24  1258.50  1342.79  1362.26
                             1413.04  1449.59  1575.90  1668.92  1690.06
                             1719.91  1735.51  1760.95  1838.17  1842.56
                             1866.70  1883.26  1918.76  1943.88  1952.49
                             2000.91  2026.20  2093.84  2144.62  2147.79
                             2162.89  2172.47  2305.87  2337.19  2351.70
                             2366.10  2388.41  2429.46  4519.28  4531.08
                             4572.99  4602.19  4628.58  5411.77  5486.96
                             5527.86

 Zero-point correction=                           0.199983 (Hartree/Particle)
 Thermal correction to Energy=                    0.216696
 Thermal correction to Enthalpy=                  0.217640
 Thermal correction to Gibbs Free Energy=         0.155889
 Sum of electronic and zero-point Energies=          -1064.997103
 Sum of electronic and thermal Energies=             -1064.980390
 Sum of electronic and thermal Enthalpies=           -1064.979446
 Sum of electronic and thermal Free Energies=        -1065.041197

                     E (Thermal)             CV                S
                      KCal/Mol        Cal/Mol-Kelvin    Cal/Mol-Kelvin
 Total                  135.979             66.598            129.967
 Electronic               0.000              0.000              0.000
 Translational            0.889              2.981             42.871
 Rotational               0.889              2.981             33.886
 Vibrational            134.201             60.637             53.210
 Vibration     1          0.593              1.985              6.446
 Vibration     2          0.596              1.976              4.672
 Vibration     3          0.602              1.956              3.663
 Vibration     4          0.606              1.941              3.265
 Vibration     5          0.615              1.912              2.790
 Vibration     6          0.624              1.884              2.481
 Vibration     7          0.629              1.868              2.339
 Vibration     8          0.643              1.824              2.032
 Vibration     9          0.654              1.788              1.844
 Vibration    10          0.670              1.740              1.638
 Vibration    11          0.672              1.735              1.620
 Vibration    12          0.687              1.689              1.464
 Vibration    13          0.698              1.659              1.374
 Vibration    14          0.726              1.579              1.175
 Vibration    15          0.737              1.549              1.110
 Vibration    16          0.756              1.498              1.011
 Vibration    17          0.761              1.482              0.983
 Vibration    18          0.769              1.462              0.949
 Vibration    19          0.787              1.416              0.875
 Vibration    20          0.797              1.391              0.838
 Vibration    21          0.806              1.369              0.806
 Vibration    22          0.808              1.364              0.800
 Vibration    23          0.817              1.340              0.768
 Vibration    24          0.825              1.321              0.743
 Vibration    25          0.839              1.289              0.704
 Vibration    26          0.863              1.232              0.638
 Vibration    27          0.890              1.173              0.577
 Vibration    28          0.895              1.162              0.565
 Vibration    29          0.932              1.084              0.494
 Vibration    30          0.979              0.992              0.418

 Optimization completed.
    -- Stationary point found.
 Normal termination of Gaussian 16 at Sun Jan  7 07:30:28 2024.
