 Gaussian 16, Revision A.03,
 Gaussian 16:  ES64L-G16RevA.03 25-Dec-2016

 ----------------------------------------------------------------------
 #P UB3LYP/6-311++G(d,p) nosym opt freq SCRF=(PCM,Solvent=n,n-DiMethylF
 ormamide)
 ----------------------------------------------------------------------

 -------
 Reduced
 -------
 Symbolic Z-matrix:
 Charge = -2 Multiplicity = 1

 SCF Done:  E(UB3LYP) =  -690.349279935     A.U. after   19 cycles
 SCF Done:  E(UB3LYP) =  -690.351553368     A.U. after   13 cycles
 SCF Done:  E(UB3LYP) =  -690.351848385     A.U. after   13 cycles
 SCF Done:  E(UB3LYP) =  -690.352098617     A.U. after   13 cycles
 SCF Done:  E(UB3LYP) =  -690.352149469     A.U. after   14 cycles
 SCF Done:  E(UB3LYP) =  -690.352160288     A.U. after   14 cycles
 SCF Done:  E(UB3LYP) =  -690.352162910     A.U. after   13 cycles
 SCF Done:  E(UB3LYP) =  -690.352164378     A.U. after   13 cycles
 SCF Done:  E(UB3LYP) =  -690.352164764     A.U. after   12 cycles
 Optimization completed.
    -- Stationary point found.
 Normal termination of Gaussian 16 at Sun Feb 11 16:49:07 2024.

 ----------------------------------------------------------------------
 #P Geom=AllCheck Guess=TCheck SCRF=Check GenChk UB3LYP/6-311++G(d,p) F
 req
 ----------------------------------------------------------------------

 Structure from the checkpoint file:  "346-an.chk"
 -------
 Reduced
 -------
 Charge = -2 Multiplicity = 1

                          Input orientation:
 ---------------------------------------------------------------------
 Center     Atomic      Atomic             Coordinates (Angstroms)
 Number     Number       Type             X           Y           Z
 ---------------------------------------------------------------------
      1          8           0       -0.038620   -1.266002    1.252438
      2          6           0       -0.444615   -0.392418    0.348541
      3          6           0       -1.918512   -0.255385    0.201022
      4          6           0       -2.742161   -1.033279    1.061218
      5          6           0       -4.130942   -0.978159    1.011645
      6          6           0       -4.782241   -0.144531    0.094691
      7          6           0       -3.997719    0.627011   -0.769890
      8          6           0       -2.605172    0.579452   -0.723727
      9          6           0        0.444616    0.392303   -0.449136
     10          8           0        0.038617    1.265923   -1.353000
     11          6           0        1.918511    0.255355   -0.301534
     12          6           0        2.742166    1.033205   -1.161765
     13          6           0        4.130947    0.978127   -1.112147
     14          6           0        4.782242    0.144582   -0.195114
     15          6           0        3.997714   -0.626918    0.669500
     16          6           0        2.605168   -0.579396    0.623297
     17          1           0       -2.243663   -1.682520    1.769812
     18          1           0       -4.715054   -1.590245    1.693980
     19          1           0       -5.865614   -0.099548    0.054567
     20          1           0       -4.479725    1.278945   -1.494080
     21          1           0       -2.003957    1.177394   -1.392424
     22          1           0        2.243670    1.682373   -1.870429
     23          1           0        4.715062    1.590182   -1.794507
     24          1           0        5.865614    0.099631   -0.154956
     25          1           0        4.479717   -1.278789    1.393749
     26          1           0        2.003953   -1.177293    1.292032
 ---------------------------------------------------------------------

 SCF Done:  E(UB3LYP) =  -690.352164764     A.U. after    1 cycles

 Alpha  occ. eigenvalues --  -19.00188 -19.00187 -10.15629 -10.15587 -10.15236
 Alpha  occ. eigenvalues --  -10.15236 -10.15086 -10.15086 -10.14779 -10.14778
 Alpha  occ. eigenvalues --  -10.14455 -10.14455 -10.13874 -10.13873 -10.13555
 Alpha  occ. eigenvalues --  -10.13555  -0.91850  -0.89793  -0.82490  -0.82249
 Alpha  occ. eigenvalues --   -0.72367  -0.72029  -0.71797  -0.71691  -0.63032
 Alpha  occ. eigenvalues --   -0.59083  -0.57746  -0.57063  -0.55084  -0.51128
 Alpha  occ. eigenvalues --   -0.48615  -0.45359  -0.44021  -0.41999  -0.41540
 Alpha  occ. eigenvalues --   -0.41357  -0.39337  -0.39327  -0.37701  -0.37008
 Alpha  occ. eigenvalues --   -0.36224  -0.34712  -0.34119  -0.33295  -0.31563
 Alpha  occ. eigenvalues --   -0.30918  -0.30405  -0.30183  -0.26815  -0.23438
 Alpha  occ. eigenvalues --   -0.23377  -0.22120  -0.21458  -0.19932  -0.16531
 Alpha  occ. eigenvalues --   -0.09931
 Alpha virt. eigenvalues --   -0.01726   0.00036   0.00549   0.00921   0.01123
 Alpha virt. eigenvalues --    0.01562   0.02157   0.02409   0.03301   0.03825
 Alpha virt. eigenvalues --    0.04139   0.04902   0.05028   0.06271   0.06386

  Beta  occ. eigenvalues --  -19.00188 -19.00187 -10.15629 -10.15587 -10.15236
  Beta  occ. eigenvalues --  -10.15236 -10.15086 -10.15086 -10.14779 -10.14778
  Beta  occ. eigenvalues --  -10.14455 -10.14455 -10.13874 -10.13873 -10.13555
  Beta  occ. eigenvalues --  -10.13555  -0.91850  -0.89793  -0.82490  -0.82249
  Beta  occ. eigenvalues --   -0.72367  -0.72029  -0.71797  -0.71691  -0.63032
  Beta  occ. eigenvalues --   -0.59083  -0.57746  -0.57063  -0.55084  -0.51128
  Beta  occ. eigenvalues --   -0.48615  -0.45359  -0.44021  -0.41999  -0.41540
  Beta  occ. eigenvalues --   -0.41357  -0.39337  -0.39327  -0.37701  -0.37008
  Beta  occ. eigenvalues --   -0.36224  -0.34712  -0.34119  -0.33295  -0.31563
  Beta  occ. eigenvalues --   -0.30918  -0.30405  -0.30183  -0.26815  -0.23438
  Beta  occ. eigenvalues --   -0.23377  -0.22120  -0.21458  -0.19932  -0.16531
  Beta  occ. eigenvalues --   -0.09931
  Beta virt. eigenvalues --   -0.01726   0.00036   0.00549   0.00921   0.01123
  Beta virt. eigenvalues --    0.01562   0.02157   0.02409   0.03301   0.03825
  Beta virt. eigenvalues --    0.04139   0.04902   0.05028   0.06271   0.06386

 Mulliken charges and spin densities:
               1          2
     1  O   -0.659446  -0.000000
     2  C   -0.423274   0.000000
     3  C    1.542475  -0.000000
     4  C    0.289880  -0.000000
     5  C   -0.345932  -0.000000
     6  C   -0.536360   0.000000
     7  C   -0.452089   0.000000
     8  C   -1.230875   0.000000
     9  C   -0.422959   0.000000
    10  O   -0.659452  -0.000000
    11  C    1.542240  -0.000000
    12  C    0.289820  -0.000000
    13  C   -0.345905  -0.000000
    14  C   -0.536406   0.000000
    15  C   -0.452000   0.000000
    16  C   -1.230921   0.000000
    17  H    0.161849   0.000000
    18  H    0.166067  -0.000000
    19  H    0.142795  -0.000000
    20  H    0.176601  -0.000000
    21  H    0.168296  -0.000000
    22  H    0.161844  -0.000000
    23  H    0.166069   0.000000
    24  H    0.142792  -0.000000
    25  H    0.176603  -0.000000
    26  H    0.168288  -0.000000
 Sum of Mulliken charges =  -2.00000  -0.00000

 Dipole moment (field-independent basis, Debye):
    X=             -0.0000    Y=              0.0003    Z=              0.4829  Tot=              0.4829
 Quadrupole moment (field-independent basis, Debye-Ang):
   XX=           -134.7963   YY=           -117.1216   ZZ=           -116.6007
   XY=             -2.2250   XZ=              2.1260   YZ=              7.7656

  Exact polarizability: 746.183  73.139 235.156 -74.225 -76.190 245.690
 Approx polarizability: 748.564  81.200 268.459 -82.796 -99.723 282.464

                      1                      2                      3
                      A                      A                      A
 Frequencies --     37.8134                63.9089                99.1799
 Red. masses --      6.5275                 3.7210                 6.8320
 Frc consts  --      0.0055                 0.0090                 0.0396
 IR Inten    --     15.7875                 0.3043                 0.0000

                      4                      5                      6
                      A                      A                      A
 Frequencies --    119.4399               155.3007               193.5561
 Red. masses --      5.1299                 4.6706                 5.8241
 Frc consts  --      0.0431                 0.0664                 0.1286
 IR Inten    --     17.5767                 0.0000                 6.7183

                      7                      8                      9
                      A                      A                      A
 Frequencies --    224.1042               292.6257               337.2362
 Red. masses --      5.9657                 5.0096                 7.7281
 Frc consts  --      0.1765                 0.2527                 0.5178
 IR Inten    --      0.0000                 0.0000                54.1258

                     10                     11                     12
                      A                      A                      A
 Frequencies --    382.8115               407.8179               431.4240
 Red. masses --      5.3170                11.9346                 3.2592
 Frc consts  --      0.4591                 1.1695                 0.3574
 IR Inten    --      0.1970                 0.0000                 0.0000

                     13                     14                     15
                      A                      A                      A
 Frequencies --    434.4576               439.7109               452.6671
 Red. masses --      3.1578                 3.4054                 8.2761
 Frc consts  --      0.3512                 0.3879                 0.9992
 IR Inten    --      2.0260                 0.0000                18.4708

                     16                     17                     18
                      A                      A                      A
 Frequencies --    572.4912               630.4520               631.2041
 Red. masses --      3.3825                 7.2434                 9.1305
 Frc consts  --      0.6532                 1.6963                 2.1433
 IR Inten    --     70.1202                 5.9671                 0.0000

                     19                     20                     21
                      A                      A                      A
 Frequencies --    631.6426               631.9899               674.3168
 Red. masses --      6.8596                 6.5151                 4.3312
 Frc consts  --      1.6125                 1.5332                 1.1603
 IR Inten    --      9.9798                 0.0001                 0.0000

                     22                     23                     24
                      A                      A                      A
 Frequencies --    705.3276               708.6554               717.7814
 Red. masses --      1.7404                 1.4726                 7.3227
 Frc consts  --      0.5101                 0.4357                 2.2228
 IR Inten    --    181.6115                 0.0002                 0.0000

                     25                     26                     27
                      A                      A                      A
 Frequencies --    766.4915               780.3531               822.8195
 Red. masses --      2.1376                 3.0348                 6.6910
 Frc consts  --      0.7399                 1.0888                 2.6690
 IR Inten    --    110.3262                 0.0000               222.5980

                     28                     29                     30
                      A                      A                      A
 Frequencies --    854.7413               855.6128               902.6208
 Red. masses --      1.2613                 1.2602                 1.4889
 Frc consts  --      0.5429                 0.5435                 0.7147
 IR Inten    --      0.0000                 0.6166                 0.0001

                     31                     32                     33
                      A                      A                      A
 Frequencies --    904.9665               978.7484               984.5734
 Red. masses --      1.4879                 5.0161                 1.2490
 Frc consts  --      0.7179                 2.8311                 0.7134
 IR Inten    --     41.1701              1536.0070                 0.0000

                     34                     35                     36
                      A                      A                      A
 Frequencies --    985.1217               991.8066              1002.0383
 Red. masses --      1.2531                 5.4338                 1.2947
 Frc consts  --      0.7165                 3.1493                 0.7659
 IR Inten    --      6.6001                 0.0000                12.9416

                     37                     38                     39
                      A                      A                      A
 Frequencies --   1002.3254              1028.2129              1032.1700
 Red. masses --      1.3036                 2.0314                 2.2376
 Frc consts  --      0.7716                 1.2654                 1.4045
 IR Inten    --      0.0222                98.0827                 0.0005

                     40                     41                     42
                      A                      A                      A
 Frequencies --   1058.2464              1059.2078              1079.1449
 Red. masses --      2.6300                 1.9026                 1.9337
 Frc consts  --      1.7353                 1.2577                 1.3268
 IR Inten    --      0.1018               879.0233                 0.0000

                     43                     44                     45
                      A                      A                      A
 Frequencies --   1112.1530              1157.6235              1159.2928
 Red. masses --      2.2121                 1.1049                 1.0984
 Frc consts  --      1.6121                 0.8724                 0.8697
 IR Inten    --   1482.5844                 0.0001                 4.6321

                     46                     47                     48
                      A                      A                      A
 Frequencies --   1163.1460              1197.8805              1216.5473
 Red. masses --      1.2395                 1.5835                 5.8584
 Frc consts  --      0.9880                 1.3388                 5.1084
 IR Inten    --      0.0001               787.7475               569.6719

                     49                     50                     51
                      A                      A                      A
 Frequencies --   1280.8951              1304.7157              1316.4752
 Red. masses --      2.1919                 1.9391                 5.5688
 Frc consts  --      2.1188                 1.9449                 5.6864
 IR Inten    --      0.0000                19.3387                 0.0000

                     52                     53                     54
                      A                      A                      A
 Frequencies --   1336.7726              1340.9768              1398.3478
 Red. masses --      3.4090                 4.0636                 3.4093
 Frc consts  --      3.5892                 4.3053                 3.9277
 IR Inten    --    151.5481                 0.0000                 0.0000

                     55                     56                     57
                      A                      A                      A
 Frequencies --   1456.6191              1471.1322              1483.5348
 Red. masses --      2.2304                 2.7147                 2.1002
 Frc consts  --      2.7881                 3.4615                 2.7234
 IR Inten    --     32.8499                 0.0000               716.1385

                     58                     59                     60
                      A                      A                      A
 Frequencies --   1486.8057              1563.5976              1563.6696
 Red. masses --      2.1212                 5.1140                 4.8945
 Frc consts  --      2.7628                 7.3665                 7.0509
 IR Inten    --      0.0005                 0.0007                18.5155

                     61                     62                     63
                      A                      A                      A
 Frequencies --   1598.2474              1616.6582              3130.2962
 Red. masses --      5.2126                 5.6585                 1.0851
 Frc consts  --      7.8450                 8.7134                 6.2644
 IR Inten    --   1421.2183                 0.0000                90.8624

                     64                     65                     66
                      A                      A                      A
 Frequencies --   3130.7349              3135.8503              3135.8508
 Red. masses --      1.0852                 1.0892                 1.0892
 Frc consts  --      6.2669                 6.3107                 6.3106
 IR Inten    --      0.0000               153.8310                 0.6935

                     67                     68                     69
                      A                      A                      A
 Frequencies --   3165.4650              3165.5424              3191.1735
 Red. masses --      1.0947                 1.0946                 1.0892
 Frc consts  --      6.4626                 6.4623                 6.5354
 IR Inten    --    148.6582                 0.0000                41.3330

                     70                     71                     72
                      A                      A                      A
 Frequencies --   3191.3053              3203.2149              3203.7099
 Red. masses --      1.0894                 1.0917                 1.0918
 Frc consts  --      6.5367                 6.5997                 6.6022
 IR Inten    --      0.0017                35.5154                 0.0153

 - Thermochemistry -
 -------------------
 Temperature   298.150 Kelvin.  Pressure   1.00000 Atm.
 Atom     1 has atomic number  8 and mass  15.99491

 Molecular mass:   210.06808 amu.
 Principal axes and moments of inertia in atomic units:
                           1         2         3
     Eigenvalues --  1022.807697020.200708042.25516
           X            0.99570   0.09261  -0.00338
           Y            0.06553  -0.67777   0.73235
           Z           -0.06553   0.72942   0.68092
 This molecule is an asymmetric top.
 Rotational symmetry number  1.
 Warning -- assumption of classical behavior for rotation
           may cause significant error
 Rotational temperatures (Kelvin)      0.08468     0.01234     0.01077
 Rotational constants (GHZ):           1.76450     0.25708     0.22441
 Zero-point vibrational energy     514055.4 (Joules/Mol)
                                  122.86219 (Kcal/Mol)
 Warning -- explicit consideration of  16 degrees of freedom as
           vibrations may cause significant error
 Vibrational temperatures:     54.41    91.95   142.70   171.85   223.44
          (Kelvin)            278.48   322.44   421.02   485.21   550.78
                              586.76   620.72   625.09   632.65   651.29
                              823.69   907.08   908.16   908.79   909.29
                              970.19  1014.81  1019.60  1032.73  1102.81
                             1122.75  1183.85  1229.78  1231.04  1298.67
                             1302.04  1408.20  1416.58  1417.37  1426.99
                             1441.71  1442.12  1479.37  1485.06  1522.58
                             1523.96  1552.65  1600.14  1665.56  1667.96
                             1673.51  1723.48  1750.34  1842.92  1877.19
                             1894.11  1923.32  1929.37  2011.91  2095.75
                             2116.63  2134.48  2139.18  2249.67  2249.77
                             2299.52  2326.01  4503.80  4504.43  4511.79
                             4511.79  4554.40  4554.51  4591.39  4591.58
                             4608.71  4609.42

 Zero-point correction=                           0.195793 (Hartree/Particle)
 Thermal correction to Energy=                    0.208250
 Thermal correction to Enthalpy=                  0.209195
 Thermal correction to Gibbs Free Energy=         0.156276
 Sum of electronic and zero-point Energies=           -690.156371
 Sum of electronic and thermal Energies=              -690.143914
 Sum of electronic and thermal Enthalpies=            -690.142970
 Sum of electronic and thermal Free Energies=         -690.195889

                     E (Thermal)             CV                S
                      KCal/Mol        Cal/Mol-Kelvin    Cal/Mol-Kelvin
 Total                  130.679             50.194            111.377
 Electronic               0.000              0.000              0.000
 Translational            0.889              2.981             41.931
 Rotational               0.889              2.981             32.424
 Vibrational            128.902             44.233             37.023
 Vibration     1          0.594              1.982              5.370
 Vibration     2          0.597              1.972              4.333
 Vibration     3          0.604              1.950              3.470
 Vibration     4          0.609              1.933              3.109
 Vibration     5          0.620              1.897              2.606
 Vibration     6          0.635              1.849              2.193
 Vibration     7          0.649              1.804              1.926
 Vibration     8          0.688              1.687              1.459
 Vibration     9          0.718              1.601              1.225
 Vibration    10          0.752              1.507              1.028
 Vibration    11          0.772              1.453              0.934
 Vibration    12          0.792              1.402              0.854
 Vibration    13          0.795              1.395              0.844
 Vibration    14          0.800              1.384              0.828
 Vibration    15          0.811              1.355              0.788
 Vibration    16          0.929              1.091              0.499

 Optimization completed.
    -- Stationary point found.
 Normal termination of Gaussian 16 at Sun Feb 11 17:34:12 2024.
