 Gaussian 16, Revision A.03,
 Gaussian 16:  ES64L-G16RevA.03 25-Dec-2016

 ----------------------------------------------------------------------
 #P UB3LYP/6-311++G(d,p) nosym opt freq SCRF=(PCM,Solvent=n,n-DiMethylF
 ormamide)
 ----------------------------------------------------------------------

 -------
 Radical
 -------
 Symbolic Z-matrix:
 Charge = -1 Multiplicity = 2

 SCF Done:  E(UB3LYP) =  -669.406158801     A.U. after   19 cycles
 SCF Done:  E(UB3LYP) =  -669.407136510     A.U. after   17 cycles
 SCF Done:  E(UB3LYP) =  -669.407349884     A.U. after   16 cycles
 SCF Done:  E(UB3LYP) =  -669.407412207     A.U. after   15 cycles
 SCF Done:  E(UB3LYP) =  -669.407453431     A.U. after   13 cycles
 SCF Done:  E(UB3LYP) =  -669.407461625     A.U. after   13 cycles
 SCF Done:  E(UB3LYP) =  -669.407468644     A.U. after   13 cycles
 SCF Done:  E(UB3LYP) =  -669.407469392     A.U. after   13 cycles
 SCF Done:  E(UB3LYP) =  -669.407469900     A.U. after   11 cycles
 SCF Done:  E(UB3LYP) =  -669.407469999     A.U. after   10 cycles
 Optimization completed.
    -- Stationary point found.
 Normal termination of Gaussian 16 at Sun Feb 11 15:59:05 2024.

 ----------------------------------------------------------------------
 #P Geom=AllCheck Guess=TCheck SCRF=Check GenChk UB3LYP/6-311++G(d,p) F
 req
 ----------------------------------------------------------------------

 Structure from the checkpoint file:  "323-rad.chk"
 -------
 Radical
 -------
 Charge = -1 Multiplicity = 2

                          Input orientation:
 ---------------------------------------------------------------------
 Center     Atomic      Atomic             Coordinates (Angstroms)
 Number     Number       Type             X           Y           Z
 ---------------------------------------------------------------------
      1          6           0       -1.654349    2.861200   -0.659291
      2          6           0       -2.863140    2.189338   -0.639917
      3          6           0       -2.881372    0.795063   -0.458861
      4          6           0       -0.428895    2.182681   -0.482212
      5          6           0       -0.450667    0.774915   -0.245854
      6          6           0       -1.694301    0.107014   -0.269338
      7          6           0        0.826737    2.931860   -0.594172
      8          6           0        2.087350    2.162942   -0.491201
      9          6           0        1.989777    0.754518   -0.202109
     10          6           0        0.806874    0.071351   -0.046459
     11          8           0        0.834535    4.179648   -0.790987
     12          8           0        3.214415    2.729744   -0.616327
     13          1           0       -1.619895    3.930732   -0.827823
     14          1           0       -3.791600    2.731919   -0.782109
     15          1           0       -3.821974    0.255411   -0.475446
     16          1           0       -1.713381   -0.969248   -0.155555
     17          1           0        2.936230    0.241536   -0.075653
     18          7           0        0.762827   -1.315700    0.253617
     19          6           0        1.954466   -2.095257   -0.062479
     20          6           0        0.254568   -1.650095    1.591121
     21          1           0        2.277330   -1.890020   -1.083989
     22          1           0        1.706407   -3.156473    0.016721
     23          1           0        2.798370   -1.898009    0.618266
     24          1           0       -0.628249   -1.060217    1.829027
     25          1           0        1.013391   -1.460370    2.367256
     26          1           0       -0.015177   -2.708674    1.625813
 ---------------------------------------------------------------------

 SCF Done:  E(UB3LYP) =  -669.407469999     A.U. after    1 cycles

 Alpha  occ. eigenvalues --  -19.07409 -19.06817 -14.32194 -10.21298 -10.21174
 Alpha  occ. eigenvalues --  -10.20679 -10.18993 -10.18828 -10.17972 -10.17135
 Alpha  occ. eigenvalues --  -10.17103 -10.17077 -10.17007 -10.16789 -10.15264
 Alpha  occ. eigenvalues --   -1.00373  -0.97424  -0.93910  -0.85749  -0.79707
 Alpha  occ. eigenvalues --   -0.75338  -0.73056  -0.70677  -0.69349  -0.63550
 Alpha  occ. eigenvalues --   -0.61222  -0.59179  -0.55675  -0.51223  -0.49949
 Alpha  occ. eigenvalues --   -0.49052  -0.46202  -0.45492  -0.44552  -0.43453
 Alpha  occ. eigenvalues --   -0.42146  -0.41393  -0.41138  -0.39981  -0.39666
 Alpha  occ. eigenvalues --   -0.38742  -0.37826  -0.37259  -0.36491  -0.34956
 Alpha  occ. eigenvalues --   -0.34070  -0.33483  -0.30669  -0.25780  -0.25313
 Alpha  occ. eigenvalues --   -0.24032  -0.22336  -0.21571  -0.15085
 Alpha virt. eigenvalues --   -0.03467  -0.00622  -0.00389   0.00569   0.01324
 Alpha virt. eigenvalues --    0.01988   0.02641   0.02772   0.03701   0.03875
 Alpha virt. eigenvalues --    0.04693   0.04931   0.05317   0.05564   0.06356

  Beta  occ. eigenvalues --  -19.06756 -19.06267 -14.32119 -10.21093 -10.21015
  Beta  occ. eigenvalues --  -10.20462 -10.18973 -10.18832 -10.17881 -10.17126
  Beta  occ. eigenvalues --  -10.17075 -10.17037 -10.16986 -10.16745 -10.15335
  Beta  occ. eigenvalues --   -0.99302  -0.96317  -0.93690  -0.85557  -0.79366
  Beta  occ. eigenvalues --   -0.75084  -0.72933  -0.70619  -0.68734  -0.63156
  Beta  occ. eigenvalues --   -0.61103  -0.58798  -0.55449  -0.51043  -0.49778
  Beta  occ. eigenvalues --   -0.48823  -0.45991  -0.45331  -0.44370  -0.43309
  Beta  occ. eigenvalues --   -0.42017  -0.40959  -0.39931  -0.39658  -0.39219
  Beta  occ. eigenvalues --   -0.38530  -0.37615  -0.37188  -0.35437  -0.34793
  Beta  occ. eigenvalues --   -0.33374  -0.31777  -0.29306  -0.24796  -0.24690
  Beta  occ. eigenvalues --   -0.23400  -0.21759  -0.20725
  Beta virt. eigenvalues --   -0.08509  -0.02714  -0.00490   0.00539   0.00861
  Beta virt. eigenvalues --    0.01355   0.02059   0.02669   0.02784   0.03895
  Beta virt. eigenvalues --    0.04379   0.04755   0.05077   0.05530   0.05807

 Mulliken charges and spin densities:
               1          2
     1  C    0.045240   0.062975
     2  C   -0.490820   0.003569
     3  C   -0.375307   0.062231
     4  C    0.435903   0.009923
     5  C    0.171196   0.068031
     6  C   -0.073838  -0.011133
     7  C   -0.477319   0.121773
     8  C   -0.095469   0.163664
     9  C   -0.130508  -0.069576
    10  C   -0.219919   0.103804
    11  O   -0.501365   0.246190
    12  O   -0.536091   0.198735
    13  H    0.171294  -0.004397
    14  H    0.177253  -0.000978
    15  H    0.182818  -0.004464
    16  H    0.183073  -0.000009
    17  H    0.178799   0.003098
    18  N    0.124914   0.034717
    19  C   -0.278333  -0.004278
    20  C   -0.382645   0.009305
    21  H    0.159318  -0.000083
    22  H    0.157280   0.000431
    23  H    0.131286   0.003716
    24  H    0.122523  -0.000319
    25  H    0.145309   0.000463
    26  H    0.175411   0.002611
 Sum of Mulliken charges =  -1.00000   1.00000

 Dipole moment (field-independent basis, Debye):
    X=             -9.3260    Y=            -18.2541    Z=              4.3472  Tot=             20.9543
 Quadrupole moment (field-independent basis, Debye-Ang):
   XX=           -118.0377   YY=           -151.6214   ZZ=            -95.8584
   XY=            -34.6820   XZ=              6.9867   YZ=             10.5786

  Exact polarizability: 343.462  16.135 298.768   3.135 -35.294 145.404
 Approx polarizability: 377.503  30.119 329.695   1.185 -33.741 159.610

                      1                      2                      3
                      A                      A                      A
 Frequencies --     67.6690                85.5471               116.0213
 Red. masses --      4.9357                 3.5472                 4.0732
 Frc consts  --      0.0133                 0.0153                 0.0323
 IR Inten    --      1.8591                 6.1630                 1.9264

                      4                      5                      6
                      A                      A                      A
 Frequencies --    147.1710               167.7815               217.6002
 Red. masses --      4.2959                 2.1989                 3.6692
 Frc consts  --      0.0548                 0.0365                 0.1024
 IR Inten    --      1.9241                10.6726                 3.5475

                      7                      8                      9
                      A                      A                      A
 Frequencies --    236.1222               273.2671               288.5813
 Red. masses --      1.4561                 3.9753                 3.5284
 Frc consts  --      0.0478                 0.1749                 0.1731
 IR Inten    --      3.3267                 5.1512                13.9605

                     10                     11                     12
                      A                      A                      A
 Frequencies --    293.8421               341.6204               381.5718
 Red. masses --      1.1735                 4.0050                13.1215
 Frc consts  --      0.0597                 0.2754                 1.1256
 IR Inten    --      1.0097                 4.6166                 6.5681

                     13                     14                     15
                      A                      A                      A
 Frequencies --    396.2408               416.9193               436.3439
 Red. masses --      4.1759                 3.9408                 5.3073
 Frc consts  --      0.3863                 0.4036                 0.5954
 IR Inten    --     11.9214                 3.7116                14.7230

                     16                     17                     18
                      A                      A                      A
 Frequencies --    464.6271               485.2983               529.8816
 Red. masses --      5.0598                 5.1894                 3.9543
 Frc consts  --      0.6436                 0.7201                 0.6541
 IR Inten    --      6.3492                 5.0466                13.0716

                     19                     20                     21
                      A                      A                      A
 Frequencies --    540.3809               632.0061               657.2792
 Red. masses --      4.4349                 5.4261                 3.7650
 Frc consts  --      0.7630                 1.2770                 0.9583
 IR Inten    --      5.1229                11.5909                 1.7825

                     22                     23                     24
                      A                      A                      A
 Frequencies --    683.8284               723.7587               730.5674
 Red. masses --      5.8478                 6.3318                 3.0638
 Frc consts  --      1.6111                 1.9542                 0.9635
 IR Inten    --     21.5922                16.3081                35.7876

                     25                     26                     27
                      A                      A                      A
 Frequencies --    772.6717               784.2248               806.6287
 Red. masses --      2.4263                 2.7155                 4.8648
 Frc consts  --      0.8535                 0.9840                 1.8649
 IR Inten    --     58.5858                26.1589                13.4206

                     28                     29                     30
                      A                      A                      A
 Frequencies --    865.4325               882.0589               915.7325
 Red. masses --      1.5063                 1.4038                 3.9091
 Frc consts  --      0.6647                 0.6435                 1.9314
 IR Inten    --     47.7547                 2.2114                32.3015

                     31                     32                     33
                      A                      A                      A
 Frequencies --    978.5535               994.2174               995.4289
 Red. masses --      1.3561                 4.8939                 1.3882
 Frc consts  --      0.7651                 2.8501                 0.8104
 IR Inten    --      4.1268                38.7324                 3.6271

                     34                     35                     36
                      A                      A                      A
 Frequencies --   1050.2590              1056.3553              1067.6557
 Red. masses --      2.3484                 2.0483                 1.8550
 Frc consts  --      1.5262                 1.3467                 1.2458
 IR Inten    --     42.5236                79.2433               110.2589

                     37                     38                     39
                      A                      A                      A
 Frequencies --   1112.3080              1132.9970              1161.8209
 Red. masses --      1.2647                 1.6544                 1.3782
 Frc consts  --      0.9219                 1.2513                 1.0961
 IR Inten    --     12.7130                 1.1490                77.4595

                     40                     41                     42
                      A                      A                      A
 Frequencies --   1164.7642              1194.0066              1211.1365
 Red. masses --      1.3457                 1.9596                 3.0033
 Frc consts  --      1.0757                 1.6460                 2.5956
 IR Inten    --     13.5937                21.8075                50.9547

                     43                     44                     45
                      A                      A                      A
 Frequencies --   1236.4856              1248.9744              1284.7170
 Red. masses --      2.4350                 2.5658                 2.2842
 Frc consts  --      2.1934                 2.3582                 2.2212
 IR Inten    --      9.0290                11.0377                 3.7819

                     46                     47                     48
                      A                      A                      A
 Frequencies --   1315.8729              1345.0865              1399.3129
 Red. masses --      2.6230                 8.7203                 2.8852
 Frc consts  --      2.6759                 9.2957                 3.3285
 IR Inten    --    105.1264                16.1344               202.9610

                     49                     50                     51
                      A                      A                      A
 Frequencies --   1439.3617              1442.5019              1464.3922
 Red. masses --      1.1511                 2.4668                 1.6116
 Frc consts  --      1.4051                 3.0242                 2.0362
 IR Inten    --      1.0909               194.4149               167.8692

                     52                     53                     54
                      A                      A                      A
 Frequencies --   1471.4814              1475.3307              1487.5927
 Red. masses --      2.2863                 1.1184                 1.0854
 Frc consts  --      2.9167                 1.4343                 1.4151
 IR Inten    --    345.9662                13.5415                46.6715

                     55                     56                     57
                      A                      A                      A
 Frequencies --   1496.1816              1501.7043              1514.2532
 Red. masses --      1.2346                 2.1233                 1.6738
 Frc consts  --      1.6284                 2.8212                 2.2612
 IR Inten    --    168.0922               344.7535               182.7787

                     58                     59                     60
                      A                      A                      A
 Frequencies --   1517.1009              1567.3180              1592.2950
 Red. masses --      2.0656                 6.3225                 6.3857
 Frc consts  --      2.8011                 9.1507                 9.5391
 IR Inten    --     83.4654               698.5304               154.9442

                     61                     62                     63
                      A                      A                      A
 Frequencies --   1623.7421              2945.7770              2949.8483
 Red. masses --      5.7016                 1.0585                 1.0601
 Frc consts  --      8.8569                 5.4117                 5.4352
 IR Inten    --     11.7751                88.5483               244.7461

                     64                     65                     66
                      A                      A                      A
 Frequencies --   3059.4095              3061.8887              3110.5604
 Red. masses --      1.0744                 1.0785                 1.1023
 Frc consts  --      5.9250                 5.9571                 6.2841
 IR Inten    --     50.3686                83.3108                32.5814

                     67                     68                     69
                      A                      A                      A
 Frequencies --   3135.4582              3159.1938              3173.9438
 Red. masses --      1.0974                 1.0860                 1.0909
 Frc consts  --      6.3563                 6.3861                 6.4750
 IR Inten    --     26.0995                10.8004                28.1068

                     70                     71                     72
                      A                      A                      A
 Frequencies --   3175.1153              3190.7762              3196.8810
 Red. masses --      1.0887                 1.0920                 1.0930
 Frc consts  --      6.4668                 6.5501                 6.5817
 IR Inten    --     25.7768                23.4292                26.3254

 - Thermochemistry -
 -------------------
 Temperature   298.150 Kelvin.  Pressure   1.00000 Atm.
 Atom     1 has atomic number  6 and mass  12.00000

 Molecular mass:   201.07898 amu.
 Principal axes and moments of inertia in atomic units:
                           1         2         3
     Eigenvalues --  2447.365462871.931505088.64367
           X           -0.32587   0.94527  -0.01624
           Y            0.91546   0.31979   0.24425
           Z           -0.23608  -0.06472   0.96958
 This molecule is an asymmetric top.
 Rotational symmetry number  1.
 Warning -- assumption of classical behavior for rotation
           may cause significant error
 Rotational temperatures (Kelvin)      0.03539     0.03016     0.01702
 Rotational constants (GHZ):           0.73742     0.62841     0.35466
 Zero-point vibrational energy     532593.8 (Joules/Mol)
                                  127.29298 (Kcal/Mol)
 Warning -- explicit consideration of  19 degrees of freedom as
           vibrations may cause significant error
 Vibrational temperatures:     97.36   123.08   166.93   211.75   241.40
          (Kelvin)            313.08   339.73   393.17   415.20   422.77
                              491.52   549.00   570.10   599.85   627.80
                              668.49   698.24   762.38   777.49   909.32
                              945.68   983.88  1041.33  1051.12  1111.70
                             1128.32  1160.56  1245.16  1269.09  1317.53
                             1407.92  1430.46  1432.20  1511.09  1519.86
                             1536.12  1600.36  1630.13  1671.60  1675.84
                             1717.91  1742.56  1779.03  1797.00  1848.42
                             1893.25  1935.28  2013.30  2070.92  2075.44
                             2106.93  2117.13  2122.67  2140.31  2152.67
                             2160.62  2178.67  2182.77  2255.02  2290.96
                             2336.20  4238.32  4244.17  4401.81  4405.37
                             4475.40  4511.22  4545.38  4566.60  4568.28
                             4590.82  4599.60

 Zero-point correction=                           0.202854 (Hartree/Particle)
 Thermal correction to Energy=                    0.215503
 Thermal correction to Enthalpy=                  0.216447
 Thermal correction to Gibbs Free Energy=         0.163627
 Sum of electronic and zero-point Energies=           -669.204616
 Sum of electronic and thermal Energies=              -669.191967
 Sum of electronic and thermal Enthalpies=            -669.191023
 Sum of electronic and thermal Free Energies=         -669.243843

                     E (Thermal)             CV                S
                      KCal/Mol        Cal/Mol-Kelvin    Cal/Mol-Kelvin
 Total                  135.230             49.902            111.168
 Electronic               0.000              0.000              1.377
 Translational            0.889              2.981             41.800
 Rotational               0.889              2.981             31.948
 Vibrational            133.453             43.940             36.043
 Vibration     1          0.598              1.970              4.220
 Vibration     2          0.601              1.959              3.759
 Vibration     3          0.608              1.936              3.166
 Vibration     4          0.617              1.906              2.708
 Vibration     5          0.625              1.882              2.460
 Vibration     6          0.646              1.814              1.979
 Vibration     7          0.655              1.785              1.832
 Vibration     8          0.676              1.723              1.575
 Vibration     9          0.685              1.695              1.482
 Vibration    10          0.689              1.685              1.452
 Vibration    11          0.721              1.592              1.205
 Vibration    12          0.751              1.509              1.033
 Vibration    13          0.763              1.478              0.977
 Vibration    14          0.780              1.433              0.902
 Vibration    15          0.797              1.391              0.838
 Vibration    16          0.822              1.329              0.753
 Vibration    17          0.841              1.283              0.696
 Vibration    18          0.885              1.184              0.587
 Vibration    19          0.895              1.161              0.564

 Optimization completed.
    -- Stationary point found.
 Normal termination of Gaussian 16 at Sun Feb 11 16:48:04 2024.
