 Gaussian 16, Revision A.03,
 Gaussian 16:  ES64L-G16RevA.03 25-Dec-2016

 ----------------------------------------------------------------
 #P UB3LYP/6-311++G(d,p) SCRF=(PCM,Solvent=n,n-DiMethylFormamide)
 ----------------------------------------------------------------

 ------------------
 Radical PCM in DMF
 ------------------
 Symbolic Z-matrix:
 Charge = -1 Multiplicity = 2

                         Standard orientation:
 ---------------------------------------------------------------------
 Center     Atomic      Atomic             Coordinates (Angstroms)
 Number     Number       Type             X           Y           Z
 ---------------------------------------------------------------------
      1          8           0        2.677254   -2.214480    0.000273
      2          6           0        2.465774   -0.882287    0.000068
      3          6           0        3.554755   -0.018999    0.000165
      4          6           0        3.349301    1.370645    0.000072
      5          6           0        2.071982    1.901095   -0.000086
      6          6           0        0.947475    1.052268   -0.000135
      7          6           0       -0.395096    1.643815   -0.000086
      8          8           0       -0.572290    2.884827   -0.000163
      9          6           0       -1.521573    0.705597   -0.000010
     10          6           0       -2.840342    1.207629    0.000270
     11          6           0       -3.929473    0.358706    0.000275
     12          6           0       -3.732181   -1.040227    0.000036
     13          6           0       -2.452414   -1.556212   -0.000150
     14          6           0       -1.323452   -0.705229   -0.000180
     15          6           0        0.010456   -1.278414   -0.000248
     16          8           0        0.185552   -2.548399   -0.000164
     17          6           0        1.132079   -0.362930   -0.000133
     18          1           0        1.752705   -2.622370    0.000175
     19          1           0        4.552349   -0.444003    0.000341
     20          1           0        4.210440    2.032881    0.000119
     21          1           0        1.897862    2.969788   -0.000171
     22          1           0       -2.961854    2.284738    0.000491
     23          1           0       -4.936915    0.763974    0.000489
     24          1           0       -4.588380   -1.708241    0.000057
     25          1           0       -2.274077   -2.625093   -0.000210
 ---------------------------------------------------------------------

 SCF Done:  E(UB3LYP) =  -764.357972588     A.U. after   19 cycles

 The electronic state is 2-A.
 Alpha  occ. eigenvalues --  -19.13186 -19.09172 -19.07956 -10.23618 -10.23365
 Alpha  occ. eigenvalues --  -10.22847 -10.17740 -10.17729 -10.17647 -10.17596
 Alpha  occ. eigenvalues --  -10.17563 -10.17557 -10.17514 -10.17340 -10.17250
 Alpha  occ. eigenvalues --  -10.16613 -10.16381  -1.05613  -1.00770  -1.00572
 Alpha  occ. eigenvalues --   -0.86417  -0.84935  -0.78861  -0.75508  -0.74385
 Alpha  occ. eigenvalues --   -0.74048  -0.67242  -0.64005  -0.62875  -0.58969
 Alpha  occ. eigenvalues --   -0.57050  -0.53809  -0.52835  -0.50851  -0.47879
 Alpha  occ. eigenvalues --   -0.46906  -0.46043  -0.44683  -0.43466  -0.42807
 Alpha  occ. eigenvalues --   -0.42243  -0.41795  -0.40929  -0.39963  -0.38983
 Alpha  occ. eigenvalues --   -0.38360  -0.37148  -0.35727  -0.35385  -0.35013
 Alpha  occ. eigenvalues --   -0.33879  -0.33050  -0.27334  -0.26042  -0.25925
 Alpha  occ. eigenvalues --   -0.25163  -0.24230  -0.23070  -0.14637
 Alpha virt. eigenvalues --   -0.05317  -0.02408  -0.00232   0.00135   0.00557
 Alpha virt. eigenvalues --    0.01236   0.02070   0.02463   0.04325   0.04345
 Alpha virt. eigenvalues --    0.04440   0.04586   0.05027   0.05912   0.06493

  Beta  occ. eigenvalues --  -19.13162 -19.08678 -19.07425 -10.23601 -10.23113
  Beta  occ. eigenvalues --  -10.22694 -10.17729 -10.17685 -10.17553 -10.17523
  Beta  occ. eigenvalues --  -10.17507 -10.17500 -10.17460 -10.17320 -10.17255
  Beta  occ. eigenvalues --  -10.16537 -10.16357  -1.05482  -0.99905  -0.99679
  Beta  occ. eigenvalues --   -0.86152  -0.84800  -0.78470  -0.75256  -0.74180
  Beta  occ. eigenvalues --   -0.73864  -0.66519  -0.63820  -0.62639  -0.58872
  Beta  occ. eigenvalues --   -0.56853  -0.53545  -0.52701  -0.50707  -0.47590
  Beta  occ. eigenvalues --   -0.46781  -0.45922  -0.44574  -0.42747  -0.42504
  Beta  occ. eigenvalues --   -0.41937  -0.41542  -0.40638  -0.39175  -0.38844
  Beta  occ. eigenvalues --   -0.37049  -0.36384  -0.35653  -0.34891  -0.34541
  Beta  occ. eigenvalues --   -0.33738  -0.32133  -0.25511  -0.25480  -0.25313
  Beta  occ. eigenvalues --   -0.24676  -0.23755  -0.22259
  Beta virt. eigenvalues --   -0.08923  -0.04252  -0.01399  -0.00215   0.00475
  Beta virt. eigenvalues --    0.00557   0.01249   0.02084   0.02462   0.04351
  Beta virt. eigenvalues --    0.04455   0.04488   0.04604   0.05740   0.06445

 Mulliken charges and spin densities:
               1          2
     1  O   -0.385557   0.008429
     2  C   -0.157249   0.031667
     3  C   -0.217505   0.052839
     4  C   -0.374080   0.044962
     5  C   -0.115126   0.044266
     6  C    0.454261   0.060936
     7  C   -0.392315   0.088677
     8  O   -0.450183   0.198162
     9  C   -0.025321   0.039290
    10  C    0.044343   0.018719
    11  C   -0.439922   0.048679
    12  C   -0.453613   0.025055
    13  C    0.074474   0.044952
    14  C    0.173375   0.005705
    15  C   -0.296617   0.148625
    16  O   -0.492209   0.178972
    17  C    0.463066  -0.016754
    18  H    0.358433  -0.003724
    19  H    0.184185  -0.004685
    20  H    0.189474  -0.003535
    21  H    0.156208  -0.002585
    22  H    0.164433  -0.001078
    23  H    0.183725  -0.003736
    24  H    0.182611  -0.002378
    25  H    0.171107  -0.001458
 Sum of Mulliken charges =  -1.00000   1.00000

 Dipole moment (field-independent basis, Debye):
    X=             -1.8885    Y=             -0.3291    Z=              0.0008  Tot=              1.9170
 Quadrupole moment (field-independent basis, Debye-Ang):
   XX=           -103.8282   YY=           -133.5534   ZZ=           -105.0534
   XY=             11.6304   XZ=             -0.0019   YZ=              0.0016

 Normal termination of Gaussian 16 at Sun Jan 14 01:20:01 2024.
