 Q-Chem 5.4, Q-Chem, Inc., Pleasanton, CA (2021)
 Q-Chem 5.4.0 for Intel X86 EM64T Linux

User input:
--------------------------------------------------------------
$molecule
0 1
C                 -3.9040430000     -4.0237060000     -1.3865490000
C                 -2.6318260000     -4.7750140000     -1.3484890000
C                 -1.4714330000     -4.1030790000     -1.5303950000
C                 -1.4852550000     -2.6108990000     -1.7932650000
C                 -2.7560060000     -1.8631030000     -1.8420690000
C                 -3.8975450000     -2.5529120000     -1.6399690000
O                 -4.9947550000     -4.5603150000     -1.2174580000
O                 -0.4233420000     -2.0269240000     -1.9655450000
C                 -0.1096680000     -4.7432590000     -1.5310940000
C                  0.3368110000     -5.1927230000     -2.9398240000
C                  1.7397230000     -5.8087300000     -2.9438920000
C                  2.1990750000     -6.2609980000     -4.3346550000
C                  3.6022370000     -6.8782900000     -4.3451860000
C                  4.0634380000     -7.3289280000     -5.7358410000
C                  5.4666580000     -7.9458190000     -5.7481320000
C                  5.9277680000     -8.3961650000     -7.1389710000
C                  7.3306300000     -9.0133770000     -7.1522500000
C                  7.7926400000     -9.4637070000     -8.5428330000
C                 -2.7073130000     -0.3878590000     -2.1033280000
C                 -2.7695920000     -6.2519780000     -1.1046790000
O                 -5.1174510000     -1.9903680000     -1.6516410000
H                 -0.0967120000     -5.6007720000     -0.8542940000
H                  0.6127710000     -4.0161270000     -1.1551960000
H                  0.3150500000     -4.3279530000     -3.6109240000
H                 -0.3850190000     -5.9165200000     -3.3366520000
H                  1.7635520000     -6.6655670000     -2.2578040000
H                  2.4541950000     -5.0779460000     -2.5451820000
H                  2.1760030000     -5.4030990000     -5.0186240000
H                  1.4810180000     -6.9884630000     -4.7350120000
H                  3.6254170000     -7.7363070000     -3.6607540000
H                  4.3197770000     -6.1509050000     -3.9441770000
H                  4.0398270000     -6.4707350000     -6.4198740000
H                  3.3453870000     -8.0559990000     -6.1370290000
H                  5.4904530000     -8.8040200000     -5.0639510000
H                  6.1846420000     -7.2187170000     -5.3470840000
H                  5.9041580000     -7.5378290000     -7.8229600000
H                  5.2094520000     -9.1229820000     -7.5402050000
H                  7.3552050000     -9.8723600000     -6.4688120000
H                  8.0498810000     -8.2871320000     -6.7513580000
C                  9.1950520000    -10.0790950000     -8.5459800000
H                  7.7691020000     -8.6056600000     -9.2257360000
H                 -2.1442930000      0.1242620000     -1.3177370000
H                 -3.7114270000      0.0313980000     -2.1499340000
H                 -2.1873120000     -0.1811920000     -3.0425190000
H                 -3.2517920000     -6.4379080000     -0.1405720000
H                 -1.8099490000     -6.7637130000     -1.1221740000
H                 -3.4181790000     -6.7017030000     -1.8614300000
H                  7.0746600000    -10.1897660000     -8.9435150000
H                  9.9412810000     -9.3648680000     -8.1835660000
H                  9.4938340000    -10.3892970000     -9.5512230000
H                  9.2415510000    -10.9609190000     -7.8989990000
H                 -5.7492140000     -2.7147080000     -1.4832110000
$end

$rem
BASIS  =  6-311++G(d,p)
GUI  =  2
JOB_TYPE  =  SP
METHOD  =  B3LYP
SCF_CONVERGENCE  = 8
SOLVENT_METHOD = sm12
$end

$smx
solvent dimethylformamide
charges CM5
$end

--------------------------------------------------------------

             Standard Nuclear Orientation (Angstroms)
    I     Atom           X                Y                Z
 ----------------------------------------------------------------
    1      C      -3.9040430000    -4.0237060000    -1.3865490000
    2      C      -2.6318260000    -4.7750140000    -1.3484890000
    3      C      -1.4714330000    -4.1030790000    -1.5303950000
    4      C      -1.4852550000    -2.6108990000    -1.7932650000
    5      C      -2.7560060000    -1.8631030000    -1.8420690000
    6      C      -3.8975450000    -2.5529120000    -1.6399690000
    7      O      -4.9947550000    -4.5603150000    -1.2174580000
    8      O      -0.4233420000    -2.0269240000    -1.9655450000
    9      C      -0.1096680000    -4.7432590000    -1.5310940000
   10      C       0.3368110000    -5.1927230000    -2.9398240000
   11      C       1.7397230000    -5.8087300000    -2.9438920000
   12      C       2.1990750000    -6.2609980000    -4.3346550000
   13      C       3.6022370000    -6.8782900000    -4.3451860000
   14      C       4.0634380000    -7.3289280000    -5.7358410000
   15      C       5.4666580000    -7.9458190000    -5.7481320000
   16      C       5.9277680000    -8.3961650000    -7.1389710000
   17      C       7.3306300000    -9.0133770000    -7.1522500000
   18      C       7.7926400000    -9.4637070000    -8.5428330000
   19      C      -2.7073130000    -0.3878590000    -2.1033280000
   20      C      -2.7695920000    -6.2519780000    -1.1046790000
   21      O      -5.1174510000    -1.9903680000    -1.6516410000
   22      H      -0.0967120000    -5.6007720000    -0.8542940000
   23      H       0.6127710000    -4.0161270000    -1.1551960000
   24      H       0.3150500000    -4.3279530000    -3.6109240000
   25      H      -0.3850190000    -5.9165200000    -3.3366520000
   26      H       1.7635520000    -6.6655670000    -2.2578040000
   27      H       2.4541950000    -5.0779460000    -2.5451820000
   28      H       2.1760030000    -5.4030990000    -5.0186240000
   29      H       1.4810180000    -6.9884630000    -4.7350120000
   30      H       3.6254170000    -7.7363070000    -3.6607540000
   31      H       4.3197770000    -6.1509050000    -3.9441770000
   32      H       4.0398270000    -6.4707350000    -6.4198740000
   33      H       3.3453870000    -8.0559990000    -6.1370290000
   34      H       5.4904530000    -8.8040200000    -5.0639510000
   35      H       6.1846420000    -7.2187170000    -5.3470840000
   36      H       5.9041580000    -7.5378290000    -7.8229600000
   37      H       5.2094520000    -9.1229820000    -7.5402050000
   38      H       7.3552050000    -9.8723600000    -6.4688120000
   39      H       8.0498810000    -8.2871320000    -6.7513580000
   40      C       9.1950520000   -10.0790950000    -8.5459800000
   41      H       7.7691020000    -8.6056600000    -9.2257360000
   42      H      -2.1442930000     0.1242620000    -1.3177370000
   43      H      -3.7114270000     0.0313980000    -2.1499340000
   44      H      -2.1873120000    -0.1811920000    -3.0425190000
   45      H      -3.2517920000    -6.4379080000    -0.1405720000
   46      H      -1.8099490000    -6.7637130000    -1.1221740000
   47      H      -3.4181790000    -6.7017030000    -1.8614300000
   48      H       7.0746600000   -10.1897660000    -8.9435150000
   49      H       9.9412810000    -9.3648680000    -8.1835660000
   50      H       9.4938340000   -10.3892970000    -9.5512230000
   51      H       9.2415510000   -10.9609190000    -7.8989990000
   52      H      -5.7492140000    -2.7147080000    -1.4832110000
 ----------------------------------------------------------------

   15    -968.0552768056      9.80e-09  Convergence criterion met
 Total energy in the final basis set =     -968.0767139829

                    Orbital Energies (a.u.)
 --------------------------------------------------------------

 Alpha MOs
 -- Occupied --
-19.1760 -19.1479 -19.1280 -10.2876 -10.2756 -10.2625 -10.2121 -10.2103
-10.2006 -10.1755 -10.1722 -10.1712 -10.1699 -10.1653 -10.1636 -10.1634
-10.1628 -10.1624 -10.1623 -10.1620 -10.1618 -10.1576  -1.1062  -1.0647
 -1.0600  -0.8658  -0.8232  -0.8146  -0.8019  -0.7828  -0.7583  -0.7341
 -0.7286  -0.7028  -0.6748  -0.6630  -0.6403  -0.6137  -0.5983  -0.5820
 -0.5812  -0.5763  -0.5739  -0.5599  -0.5287  -0.4891  -0.4798  -0.4778
 -0.4741  -0.4606  -0.4579  -0.4453  -0.4375  -0.4344  -0.4338  -0.4280
 -0.4232  -0.4217  -0.4204  -0.4088  -0.4031  -0.3987  -0.3943  -0.3926
 -0.3870  -0.3859  -0.3824  -0.3787  -0.3700  -0.3584  -0.3512  -0.3440
 -0.3391  -0.3358  -0.3307  -0.3272  -0.3256  -0.3237  -0.3231  -0.3043
 -0.2993  -0.2859  -0.2734  -0.2525

          Ground-State Mulliken Net Atomic Charges

     Atom                 Charge (a.u.)
  ----------------------------------------
      1 C                    -0.786163
      2 C                     1.109160
      3 C                     1.094158
      4 C                    -1.228469
      5 C                     0.640070
      6 C                    -1.287636
      7 O                    -0.307744
      8 O                    -0.290242
      9 C                    -0.070451
     10 C                    -0.632888
     11 C                     0.052326
     12 C                     0.059790
     13 C                     0.065712
     14 C                    -0.062130
     15 C                    -0.185142
     16 C                    -0.434198
     17 C                    -0.648674
     18 C                    -0.383136
     19 C                    -0.322012
     20 C                     0.103214
     21 O                    -0.231072
     22 H                     0.273371
     23 H                     0.176173
     24 H                     0.120659
     25 H                     0.143097
     26 H                     0.116919
     27 H                     0.094238
     28 H                     0.100150
     29 H                     0.113599
     30 H                     0.117649
     31 H                     0.111612
     32 H                     0.109611
     33 H                     0.113713
     34 H                     0.114790
     35 H                     0.112900
     36 H                     0.113357
     37 H                     0.114044
     38 H                     0.107192
     39 H                     0.105512
     40 C                    -0.679899
     41 H                     0.128830
     42 H                     0.183756
     43 H                     0.188614
     44 H                     0.179759
     45 H                     0.198838
     46 H                     0.242713
     47 H                     0.184755
     48 H                     0.129726
     49 H                     0.141656
     50 H                     0.160231
     51 H                     0.142092
     52 H                     0.285870
  ----------------------------------------
  Sum of atomic charges =     0.000000

                    Cartesian Multipole Moments
 -----------------------------------------------------------------
    Charge (ESU x 10^10)
                -0.0000
    Dipole Moment (Debye)
         X       0.3745      Y      -2.2884      Z       0.1189
       Tot       2.3219
    Quadrupole Moments (Debye-Ang)
        XX    -148.3149     XY      -1.4843     YY    -119.9867
        XZ      -0.3276     YZ       3.4887     ZZ    -138.6675

 Total job time:  2218.79s(wall), 16955.57s(cpu)
        *  Thank you very much for using Q-Chem.  Have a nice day.  *
