 Q-Chem 5.4, Q-Chem, Inc., Pleasanton, CA (2021)
 Q-Chem 5.4.0 for Intel X86 EM64T Linux

User input:
--------------------------------------------------------------
$molecule
0 1
C                 -0.0647740000      0.9985960000     -0.4082430000
C                 -1.0033830000      0.1387190000     -1.1676480000
C                 -1.1592920000     -1.1544600000     -0.8660130000
C                 -0.4130920000     -1.7973460000      0.2439000000
C                  0.5047470000     -0.9083800000      1.0362140000
C                  0.6566750000      0.3957150000      0.7504980000
O                  0.1250780000      2.1609110000     -0.7227950000
O                 -0.5422360000     -2.9770240000      0.4918900000
C                  1.5174950000      1.3450870000      1.5763260000
C                  2.9061210000      1.6154200000      1.0651810000
O                  1.0490080000      1.8380760000      2.5721850000
H                  2.8409930000      2.0762040000      0.0747680000
H                  3.4567470000      0.6756490000      0.9575350000
H                  3.4302200000      2.2808510000      1.7504460000
H                 -1.8299090000     -1.8089210000     -1.4110560000
Cl                 1.3573140000     -1.6742570000      2.3387280000
H                 -1.5352840000      0.6217810000     -1.9795180000
$end
$rem
MAX_SCF_CYCLES=200
BASIS  =  6-311++G(d,p)
GUI  =  2
JOB_TYPE  =  SP
METHOD  =  B3LYP
SOLVENT_METHOD = PCM
$end
$pcm
theory = CPCM
$end
$solvent
dielectric 37.219
opticaldielectric 1.43
$end

--------------------------------------------------------------

             Standard Nuclear Orientation (Angstroms)
    I     Atom           X                Y                Z
 ----------------------------------------------------------------
    1      C      -0.0647740000     0.9985960000    -0.4082430000
    2      C      -1.0033830000     0.1387190000    -1.1676480000
    3      C      -1.1592920000    -1.1544600000    -0.8660130000
    4      C      -0.4130920000    -1.7973460000     0.2439000000
    5      C       0.5047470000    -0.9083800000     1.0362140000
    6      C       0.6566750000     0.3957150000     0.7504980000
    7      O       0.1250780000     2.1609110000    -0.7227950000
    8      O      -0.5422360000    -2.9770240000     0.4918900000
    9      C       1.5174950000     1.3450870000     1.5763260000
   10      C       2.9061210000     1.6154200000     1.0651810000
   11      O       1.0490080000     1.8380760000     2.5721850000
   12      H       2.8409930000     2.0762040000     0.0747680000
   13      H       3.4567470000     0.6756490000     0.9575350000
   14      H       3.4302200000     2.2808510000     1.7504460000
   15      H      -1.8299090000    -1.8089210000    -1.4110560000
   16      Cl      1.3573140000    -1.6742570000     2.3387280000
   17      H      -1.5352840000     0.6217810000    -1.9795180000
 ----------------------------------------------------------------

    9    -993.8780610388      4.69e-06  Convergence criterion met
 Total energy in the final basis set =     -993.8780610388

                    Orbital Energies (a.u.)
 --------------------------------------------------------------

 Alpha MOs
 -- Occupied --
******** -19.1598 -19.1574 -19.1498 -10.3082 -10.3062 -10.3005 -10.2842
-10.2377 -10.2224 -10.2214 -10.1819  -9.4991  -7.2639  -7.2541  -7.2532
 -1.0943  -1.0916  -1.0838  -0.9207  -0.8613  -0.8072  -0.7593  -0.7224
 -0.6650  -0.6252  -0.5769  -0.5483  -0.5193  -0.5034  -0.4870  -0.4815
 -0.4706  -0.4633  -0.4602  -0.4453  -0.4387  -0.4284  -0.4082  -0.3902
 -0.3821  -0.3455  -0.3231  -0.3126  -0.3076  -0.2969  -0.2818

          Ground-State Mulliken Net Atomic Charges

     Atom                 Charge (a.u.)
  ----------------------------------------
      1 C                    -0.931941
      2 C                     0.146064
      3 C                     0.099098
      4 C                    -0.634931
      5 C                     0.198146
      6 C                     0.950093
      7 O                    -0.240482
      8 O                    -0.234721
      9 C                    -0.133882
     10 C                    -0.597782
     11 O                    -0.280049
     12 H                     0.219615
     13 H                     0.183133
     14 H                     0.188269
     15 H                     0.272678
     16 Cl                    0.524815
     17 H                     0.271876
  ----------------------------------------
  Sum of atomic charges =     0.000000

                    Cartesian Multipole Moments
 -----------------------------------------------------------------
    Charge (ESU x 10^10)
                 0.0000
    Dipole Moment (Debye)
         X       0.7880      Y      -0.7223      Z      -4.1343
       Tot       4.2702
    Quadrupole Moments (Debye-Ang)
        XX     -63.0511     XY       1.2505     YY     -95.8127
        XZ       3.7211     YZ      -0.3257     ZZ     -82.5653

 Total job time:  18.14s(wall), 130.09s(cpu)
        *  Thank you very much for using Q-Chem.  Have a nice day.  *
