 Gaussian 16, Revision A.03,
 Gaussian 16:  ES64L-G16RevA.03 25-Dec-2016

 --------------------------------------
 #P UB3LYP/6-311++G(d,p) nosym opt freq
 --------------------------------------

 -------
 Radical
 -------
 Symbolic Z-matrix:
 Charge = -1 Multiplicity = 2

 SCF Done:  E(UB3LYP) =  -1300.88074880     A.U. after   25 cycles
 SCF Done:  E(UB3LYP) =  -1300.89950026     A.U. after   26 cycles
 SCF Done:  E(UB3LYP) =  -1300.90047706     A.U. after   17 cycles
 SCF Done:  E(UB3LYP) =  -1300.90057628     A.U. after   17 cycles
 SCF Done:  E(UB3LYP) =  -1300.90059013     A.U. after   15 cycles
 Optimization completed.
    -- Stationary point found.
 Normal termination of Gaussian 16 at Sun Dec 17 20:57:26 2023.

 ----------------------------------------------------------------------
 #P Geom=AllCheck Guess=TCheck SCRF=Check GenChk UB3LYP/6-311++G(d,p) F
 req
 ----------------------------------------------------------------------

 Structure from the checkpoint file:  "010-rad.chk"
 -------
 Radical
 -------
 Charge = -1 Multiplicity = 2

                          Input orientation:
 ---------------------------------------------------------------------
 Center     Atomic      Atomic             Coordinates (Angstroms)
 Number     Number       Type             X           Y           Z
 ---------------------------------------------------------------------
      1         17           0       -3.087631    0.671361    0.105638
      2          6           0       -1.358110    0.292584    0.046448
      3          6           0       -0.961453   -1.013309    0.033863
      4          6           0        0.432763   -1.416413   -0.013747
      5          8           0        0.781206   -2.620260   -0.024831
      6          6           0        1.358120   -0.292466   -0.046446
      7          6           0        0.961477    1.013301   -0.033863
      8          6           0       -0.432571    1.416441    0.013749
      9          8           0       -0.781285    2.620277    0.024832
     10         17           0        3.087591   -0.671648   -0.105644
     11          1           0       -1.687580   -1.816823    0.059466
     12          1           0        1.687473    1.816956   -0.059466
 ---------------------------------------------------------------------

 SCF Done:  E(UB3LYP) =  -1300.90059013     A.U. after    1 cycles

 Alpha  occ. eigenvalues -- -101.42593-101.42593 -18.95495 -18.95494 -10.10752
 Alpha  occ. eigenvalues --  -10.10750 -10.10324 -10.10323 -10.05291 -10.05290
 Alpha  occ. eigenvalues --   -9.34037  -9.34037  -7.10463  -7.10463  -7.09562
 Alpha  occ. eigenvalues --   -7.09562  -7.09492  -7.09492  -0.88254  -0.87954
 Alpha  occ. eigenvalues --   -0.75216  -0.73943  -0.67810  -0.60843  -0.55928
 Alpha  occ. eigenvalues --   -0.48552  -0.44169  -0.37216  -0.35174  -0.32946
 Alpha  occ. eigenvalues --   -0.30658  -0.30192  -0.28352  -0.26728  -0.26126
 Alpha  occ. eigenvalues --   -0.25743  -0.22885  -0.21324  -0.19045  -0.18799
 Alpha  occ. eigenvalues --   -0.15382  -0.12776  -0.12123  -0.11917  -0.04204
 Alpha virt. eigenvalues --    0.10159   0.10704   0.11132   0.12131   0.12186
 Alpha virt. eigenvalues --    0.15097   0.16047   0.16130   0.16818   0.17007
 Alpha virt. eigenvalues --    0.17701   0.18250   0.19317   0.19674   0.20229

  Beta  occ. eigenvalues -- -101.42591-101.42590 -18.94747 -18.94746 -10.10665
  Beta  occ. eigenvalues --  -10.10664 -10.10187 -10.10186 -10.05186 -10.05185
  Beta  occ. eigenvalues --   -9.34035  -9.34034  -7.10469  -7.10468  -7.09547
  Beta  occ. eigenvalues --   -7.09547  -7.09492  -7.09491  -0.87010  -0.86660
  Beta  occ. eigenvalues --   -0.74862  -0.73808  -0.67451  -0.60523  -0.54977
  Beta  occ. eigenvalues --   -0.48138  -0.43765  -0.37004  -0.34786  -0.32673
  Beta  occ. eigenvalues --   -0.30573  -0.28665  -0.27583  -0.26187  -0.25560
  Beta  occ. eigenvalues --   -0.24342  -0.21391  -0.20299  -0.18990  -0.18768
  Beta  occ. eigenvalues --   -0.12300  -0.12045  -0.11417  -0.11217
  Beta virt. eigenvalues --    0.03092   0.10718   0.11151   0.11560   0.12215
  Beta virt. eigenvalues --    0.12226   0.16131   0.16175   0.16834   0.17056
  Beta virt. eigenvalues --    0.17698   0.17793   0.18332   0.19341   0.19693

 Mulliken charges and spin densities:
               1          2
     1  Cl   0.193704   0.004205
     2  C    1.219955   0.092481
     3  C   -0.569835   0.082425
     4  C   -1.164758   0.059121
     5  O   -0.349120   0.268929
     6  C    1.220319   0.092608
     7  C   -0.569356   0.082457
     8  C   -1.164467   0.059156
     9  O   -0.349204   0.269003
    10  Cl   0.193674   0.004211
    11  H    0.169548  -0.007296
    12  H    0.169540  -0.007299
 Sum of Mulliken charges =  -1.00000   1.00000

 Dipole moment (field-independent basis, Debye):
    X=              0.0002    Y=             -0.0002    Z=              0.0000  Tot=              0.0003
 Quadrupole moment (field-independent basis, Debye-Ang):
   XX=            -91.5051   YY=           -104.5446   ZZ=            -74.1775
   XY=             13.6958   XZ=              0.5858   YZ=             -0.4475

  Exact polarizability: 154.264 -25.301 147.504  -3.218   0.802  60.200
 Approx polarizability: 212.962 -51.313 269.198  -4.205   1.624  89.649

                      1                      2                      3
                      A                      A                      A
 Frequencies --     74.1909               155.5937               204.2887
 Red. masses --     20.8634                10.8601                18.3883
 Frc consts  --      0.0677                 0.1549                 0.4521
 IR Inten    --      3.1573                 7.7451                 1.2274

                      4                      5                      6
                      A                      A                      A
 Frequencies --    212.9012               237.8730               306.6759
 Red. masses --      6.3898                16.7656                25.0887
 Frc consts  --      0.1706                 0.5589                 1.3902
 IR Inten    --      0.0000                 0.0000                 0.0000

                      7                      8                      9
                      A                      A                      A
 Frequencies --    345.0607               383.0433               424.2272
 Red. masses --     17.7101                10.8979                 3.2473
 Frc consts  --      1.2424                 0.9421                 0.3443
 IR Inten    --      1.2591                 0.0000                 1.3955

                     10                     11                     12
                      A                      A                      A
 Frequencies --    479.5443               558.0613               608.8237
 Red. masses --     12.2090                10.9083                 5.6873
 Frc consts  --      1.6542                 2.0016                 1.2421
 IR Inten    --      0.0000                52.5854                 0.0000

                     13                     14                     15
                      A                      A                      A
 Frequencies --    678.2761               685.7796               729.0446
 Red. masses --      7.8832                 6.4561                 2.5168
 Frc consts  --      2.1368                 1.7889                 0.7881
 IR Inten    --      0.0000                 0.0694                 0.0000

                     16                     17                     18
                      A                      A                      A
 Frequencies --    829.7410               848.7591               874.5215
 Red. masses --      5.2727                 1.8421                 1.5099
 Frc consts  --      2.1388                 0.7819                 0.6804
 IR Inten    --     93.6732                 0.0001                42.0605

                     19                     20                     21
                      A                      A                      A
 Frequencies --    932.4707              1007.7874              1147.7144
 Red. masses --     11.3051                 2.9660                10.6089
 Frc consts  --      5.7915                 1.7748                 8.2336
 IR Inten    --      0.0001               245.7165                10.3520

                     22                     23                     24
                      A                      A                      A
 Frequencies --   1211.8422              1290.5156              1377.9800
 Red. masses --      1.3463                 1.8744                 5.5257
 Frc consts  --      1.1649                 1.8392                 6.1819
 IR Inten    --      0.0000                50.9628                 0.0002

                     25                     26                     27
                      A                      A                      A
 Frequencies --   1482.7918              1525.0578              1540.5408
 Red. masses --      6.9957                12.2966                 8.8530
 Frc consts  --      9.0624                16.8503                12.3791
 IR Inten    --      0.7236                 0.0423               527.2298

                     28                     29                     30
                      A                      A                      A
 Frequencies --   1623.3160              3185.4246              3187.3254
 Red. masses --      8.4455                 1.0902                 1.0911
 Frc consts  --     13.1124                 6.5174                 6.5310
 IR Inten    --      0.0001                 8.1466                 0.0164

 - Thermochemistry -
 -------------------
 Temperature   298.150 Kelvin.  Pressure   1.00000 Atm.
 Atom     1 has atomic number 17 and mass  34.96885

 Molecular mass:   175.94318 amu.
 Principal axes and moments of inertia in atomic units:
                           1         2         3
     Eigenvalues --   894.801253020.925973915.72721
           X            0.92795   0.37111   0.03436
           Y           -0.37135   0.92849   0.00078
           Z           -0.03162  -0.01349   0.99941
 This molecule is an asymmetric top.
 Rotational symmetry number  1.
 Warning -- assumption of classical behavior for rotation
           may cause significant error
 Rotational temperatures (Kelvin)      0.09680     0.02867     0.02212
 Rotational constants (GHZ):           2.01692     0.59741     0.46090
 Zero-point vibrational energy     168369.4 (Joules/Mol)
                                   40.24126 (Kcal/Mol)
 Warning -- explicit consideration of  12 degrees of freedom as
           vibrations may cause significant error
 Vibrational temperatures:    106.74   223.86   293.93   306.32   342.25
          (Kelvin)            441.24   496.47   551.11   610.37   689.96
                              802.93   875.96   975.89   986.68  1048.93
                             1193.81  1221.18  1258.24  1341.62  1449.98
                             1651.30  1743.57  1856.76  1982.61  2133.41
                             2194.22  2216.49  2335.59  4583.12  4585.85

 Zero-point correction=                           0.064129 (Hartree/Particle)
 Thermal correction to Energy=                    0.072643
 Thermal correction to Enthalpy=                  0.073587
 Thermal correction to Gibbs Free Energy=         0.028891
 Sum of electronic and zero-point Energies=          -1300.836462
 Sum of electronic and thermal Energies=             -1300.827947
 Sum of electronic and thermal Enthalpies=           -1300.827003
 Sum of electronic and thermal Free Energies=        -1300.871699

                     E (Thermal)             CV                S
                      KCal/Mol        Cal/Mol-Kelvin    Cal/Mol-Kelvin
 Total                   45.584             30.871             94.070
 Electronic               0.000              0.000              1.377
 Translational            0.889              2.981             41.402
 Rotational               0.889              2.981             30.738
 Vibrational             43.807             24.910             20.553
 Vibration     1          0.599              1.966              4.039
 Vibration     2          0.620              1.896              2.603
 Vibration     3          0.640              1.834              2.094
 Vibration     4          0.644              1.821              2.019
 Vibration     5          0.656              1.783              1.819
 Vibration     6          0.697              1.661              1.380
 Vibration     7          0.723              1.585              1.189
 Vibration     8          0.752              1.506              1.027
 Vibration     9          0.786              1.418              0.878
 Vibration    10          0.836              1.295              0.711
 Vibration    11          0.914              1.122              0.528
 Vibration    12          0.968              1.013              0.435

 Optimization completed.
    -- Stationary point found.
 Normal termination of Gaussian 16 at Sun Dec 17 21:03:53 2023.
