 Q-Chem 5.4, Q-Chem, Inc., Pleasanton, CA (2021)
 Q-Chem 5.4.0 for Intel X86 EM64T Linux

User input:
--------------------------------------------------------------
$molecule
-2 1
C                 -1.1018510000     -1.5223130000      3.5681680000
C                  0.2315990000     -1.7634400000      3.1331260000
C                  0.7245990000     -1.4703940000      1.8534700000
C                 -0.1590810000     -0.8971860000      0.8563240000
C                 -1.5050410000     -0.6621990000      1.2940210000
C                 -1.9666960000     -0.9328290000      2.5768180000
O                 -1.5430930000     -1.8033940000      4.7620100000
O                  0.2114320000     -0.6277620000     -0.3594270000
N                 -3.3213440000     -0.7264160000      3.0046710000
C                 -3.8292770000      0.6618810000      3.2034220000
C                 -5.1127150000      0.5337810000      4.0429810000
C                 -4.1831910000      1.3086640000      1.8540820000
C                 -2.8194860000      1.5579740000      3.9552750000
C                  2.1885650000     -1.7589840000      1.4674850000
C                  3.0176750000     -2.3529660000      2.6228100000
C                  2.2272900000     -2.7684110000      0.2921890000
C                  2.8785940000     -0.4452060000      1.0210320000
H                  0.8825350000     -2.1926920000      3.8895700000
H                 -2.1859300000     -0.2898510000      0.5339580000
H                 -3.3206520000     -1.1726100000      3.9276680000
H                 -4.8919840000      0.0911150000      5.0203590000
H                 -5.8375550000     -0.1091040000      3.5325590000
H                 -5.5774630000      1.5121650000      4.2136730000
H                 -4.8738890000      0.6663320000      1.2982380000
H                 -3.2885150000      1.4526470000      1.2458530000
H                 -4.6573500000      2.2866450000      2.0074310000
H                 -2.5486840000      1.0991700000      4.9105020000
H                 -3.2400230000      2.5554530000      4.1431250000
H                 -1.9033350000      1.6672810000      3.3692790000
H                  3.0559880000     -1.6762890000      3.4823940000
H                  4.0472620000     -2.5293010000      2.2820360000
H                  2.6066690000     -3.3071020000      2.9674400000
H                  1.8041880000     -3.7291950000      0.6077020000
H                  3.2618810000     -2.9424920000     -0.0452320000
H                  1.6323060000     -2.3726590000     -0.5336280000
H                  2.9237460000      0.2595990000      1.8592300000
H                  2.2984640000      0.0026710000      0.2116500000
H                  3.9080230000     -0.6373730000      0.6777540000
$end
$rem
MAX_SCF_CYCLES=200
BASIS  =  6-311++G(d,p)
GUI  =  2
JOB_TYPE  =  SP
METHOD  =  B3LYP
SOLVENT_METHOD = PCM
$end
$pcm
theory = CPCM
$end
$solvent
dielectric 37.219
opticaldielectric 1.43
$end

--------------------------------------------------------------

             Standard Nuclear Orientation (Angstroms)
    I     Atom           X                Y                Z
 ----------------------------------------------------------------
    1      C      -1.1018510000    -1.5223130000     3.5681680000
    2      C       0.2315990000    -1.7634400000     3.1331260000
    3      C       0.7245990000    -1.4703940000     1.8534700000
    4      C      -0.1590810000    -0.8971860000     0.8563240000
    5      C      -1.5050410000    -0.6621990000     1.2940210000
    6      C      -1.9666960000    -0.9328290000     2.5768180000
    7      O      -1.5430930000    -1.8033940000     4.7620100000
    8      O       0.2114320000    -0.6277620000    -0.3594270000
    9      N      -3.3213440000    -0.7264160000     3.0046710000
   10      C      -3.8292770000     0.6618810000     3.2034220000
   11      C      -5.1127150000     0.5337810000     4.0429810000
   12      C      -4.1831910000     1.3086640000     1.8540820000
   13      C      -2.8194860000     1.5579740000     3.9552750000
   14      C       2.1885650000    -1.7589840000     1.4674850000
   15      C       3.0176750000    -2.3529660000     2.6228100000
   16      C       2.2272900000    -2.7684110000     0.2921890000
   17      C       2.8785940000    -0.4452060000     1.0210320000
   18      H       0.8825350000    -2.1926920000     3.8895700000
   19      H      -2.1859300000    -0.2898510000     0.5339580000
   20      H      -3.3206520000    -1.1726100000     3.9276680000
   21      H      -4.8919840000     0.0911150000     5.0203590000
   22      H      -5.8375550000    -0.1091040000     3.5325590000
   23      H      -5.5774630000     1.5121650000     4.2136730000
   24      H      -4.8738890000     0.6663320000     1.2982380000
   25      H      -3.2885150000     1.4526470000     1.2458530000
   26      H      -4.6573500000     2.2866450000     2.0074310000
   27      H      -2.5486840000     1.0991700000     4.9105020000
   28      H      -3.2400230000     2.5554530000     4.1431250000
   29      H      -1.9033350000     1.6672810000     3.3692790000
   30      H       3.0559880000    -1.6762890000     3.4823940000
   31      H       4.0472620000    -2.5293010000     2.2820360000
   32      H       2.6066690000    -3.3071020000     2.9674400000
   33      H       1.8041880000    -3.7291950000     0.6077020000
   34      H       3.2618810000    -2.9424920000    -0.0452320000
   35      H       1.6323060000    -2.3726590000    -0.5336280000
   36      H       2.9237460000     0.2595990000     1.8592300000
   37      H       2.2984640000     0.0026710000     0.2116500000
   38      H       3.9080230000    -0.6373730000     0.6777540000
 ----------------------------------------------------------------

    9    -751.7856920580      6.62e-06  Convergence criterion met
 Total energy in the final basis set =     -751.7856920580

                    Orbital Energies (a.u.)
 --------------------------------------------------------------

 Alpha MOs
 -- Occupied --
-19.0141 -19.0061 -14.2729 -10.1929 -10.1606 -10.1580 -10.1563 -10.1452
-10.1444 -10.1405 -10.1397 -10.1363 -10.1292 -10.1291 -10.1194 -10.1121
-10.1096  -0.9308  -0.9206  -0.8804  -0.7959  -0.7734  -0.7427  -0.6812
 -0.6715  -0.6688  -0.6618  -0.6576  -0.6297  -0.5695  -0.5345  -0.5246
 -0.4927  -0.4585  -0.4456  -0.4356  -0.4300  -0.4253  -0.4131  -0.4058
 -0.3971  -0.3922  -0.3783  -0.3742  -0.3734  -0.3605  -0.3560  -0.3521
 -0.3474  -0.3466  -0.3433  -0.3342  -0.3229  -0.3130  -0.3096  -0.3064
 -0.3002  -0.2969  -0.2937  -0.2487  -0.2144  -0.1977  -0.1841  -0.1810
 -0.1089

          Ground-State Mulliken Net Atomic Charges

     Atom                 Charge (a.u.)
  ----------------------------------------
      1 C                    -0.506182
      2 C                    -0.446753
      3 C                     0.829665
      4 C                    -0.621519
      5 C                    -0.155415
      6 C                     0.064131
      7 O                    -0.750225
      8 O                    -0.706983
      9 N                     0.009652
     10 C                     0.089608
     11 C                    -0.485896
     12 C                    -0.608220
     13 C                    -0.533292
     14 C                     0.605259
     15 C                    -0.535032
     16 C                    -0.696152
     17 C                    -0.691850
     18 H                     0.145294
     19 H                     0.140344
     20 H                     0.234273
     21 H                     0.151849
     22 H                     0.146345
     23 H                     0.146773
     24 H                     0.151424
     25 H                     0.142125
     26 H                     0.143307
     27 H                     0.149098
     28 H                     0.156841
     29 H                     0.150681
     30 H                     0.129158
     31 H                     0.163834
     32 H                     0.128847
     33 H                     0.121942
     34 H                     0.134833
     35 H                     0.172763
     36 H                     0.121347
     37 H                     0.174636
     38 H                     0.133489
  ----------------------------------------
  Sum of atomic charges =    -2.000000

                    Cartesian Multipole Moments
 -----------------------------------------------------------------
    Charge (ESU x 10^10)
                -9.6064
    Dipole Moment (Debye)
         X       6.7573      Y      12.5310      Z     -20.2143
       Tot      24.7246
    Quadrupole Moments (Debye-Ang)
        XX    -138.6298     XY     -14.0406     YY    -136.7701
        XZ      29.7750     YZ      38.7926     ZZ    -210.8366

 Total job time:  88.79s(wall), 561.77s(cpu)
        *  Thank you very much for using Q-Chem.  Have a nice day.  *
