 Gaussian 16, Revision A.03,
 Gaussian 16:  ES64L-G16RevA.03 25-Dec-2016

 ----------------------------------------------------------------------
 #P UB3LYP/6-311++G(d,p) nosym opt freq SCRF=(PCM,Solvent=n,n-DiMethylF
 ormamide)
 ----------------------------------------------------------------------

 --------
 Oxidized
 --------
 Symbolic Z-matrix:
 Charge =  0 Multiplicity = 1

 SCF Done:  E(UB3LYP) =  -1144.85911289     A.U. after   15 cycles
 SCF Done:  E(UB3LYP) =  -1144.85946401     A.U. after   12 cycles
 SCF Done:  E(UB3LYP) =  -1144.85925479     A.U. after   12 cycles
 SCF Done:  E(UB3LYP) =  -1144.85966315     A.U. after   12 cycles
 SCF Done:  E(UB3LYP) =  -1144.85976304     A.U. after   11 cycles
 SCF Done:  E(UB3LYP) =  -1144.85986265     A.U. after   14 cycles
 SCF Done:  E(UB3LYP) =  -1144.85995125     A.U. after   12 cycles
 SCF Done:  E(UB3LYP) =  -1144.85996400     A.U. after   12 cycles
 SCF Done:  E(UB3LYP) =  -1144.85996867     A.U. after   11 cycles
 SCF Done:  E(UB3LYP) =  -1144.85997040     A.U. after   11 cycles
 SCF Done:  E(UB3LYP) =  -1144.85997087     A.U. after   10 cycles
 SCF Done:  E(UB3LYP) =  -1144.85997136     A.U. after   10 cycles
 SCF Done:  E(UB3LYP) =  -1144.85997141     A.U. after    9 cycles
 Optimization completed.
    -- Stationary point found.
 Normal termination of Gaussian 16 at Sat Feb 10 18:17:20 2024.

 ----------------------------------------------------------------------
 #P Geom=AllCheck Guess=TCheck SCRF=Check GenChk UB3LYP/6-311++G(d,p) F
 req
 ----------------------------------------------------------------------

 Structure from the checkpoint file:  "147.chk"
 --------
 Oxidized
 --------
 Charge =  0 Multiplicity = 1

                          Input orientation:
 ---------------------------------------------------------------------
 Center     Atomic      Atomic             Coordinates (Angstroms)
 Number     Number       Type             X           Y           Z
 ---------------------------------------------------------------------
      1          6           0       -2.848034    3.966208    0.574489
      2          6           0       -4.132308    3.464127    0.731288
      3          6           0       -4.334126    2.086458    0.659646
      4          6           0       -1.768178    3.104650    0.352855
      5          6           0       -1.989848    1.717254    0.288678
      6          6           0       -3.282015    1.211094    0.442607
      7          6           0       -0.403690    3.674441    0.192414
      8          6           0        0.719555    2.719219   -0.036452
      9          6           0        0.497888    1.331821   -0.100606
     10          6           0       -0.866609    0.762035    0.059777
     11          6           0        2.011725    3.225379   -0.190368
     12          6           0        3.063840    2.350007   -0.407355
     13          6           0        2.862029    0.972336   -0.478948
     14          6           0        1.577750    0.470257   -0.322177
     15          8           0       -0.205911    4.880454    0.245222
     16          8           0       -1.064381   -0.443982    0.007018
     17          1           0       -3.455160    0.143969    0.395808
     18          1           0        1.396399   -0.595409   -0.374378
     19          1           0       -2.666680    5.031872    0.626717
     20          1           0        2.184864    4.292505   -0.143600
     21          1           0        3.699538    0.310543   -0.660065
     22          8           0       -5.599371    1.551484    0.888260
     23          8           0        4.329111    2.884928   -0.635972
     24          6           0        5.294324    2.753548    0.333534
     25          6           0        6.582273    3.367725   -0.124926
     26          8           0        5.084248    2.217873    1.390903
     27          1           0       -4.969804    4.125922    0.912458
     28          1           0        6.428645    4.426917   -0.342484
     29          1           0        6.913424    2.886134   -1.047424
     30          1           0        7.338447    3.253086    0.648063
     31          6           0       -6.564818    1.683425   -0.080940
     32          6           0       -7.852828    1.069534    0.377726
     33          8           0       -6.354921    2.219456   -1.138163
     34          1           0       -7.698919    0.011040    0.598344
     35          1           0       -8.608326    1.181878   -0.396261
     36          1           0       -8.185158    1.553502    1.298582
 ---------------------------------------------------------------------

 SCF Done:  E(UB3LYP) =  -1144.85997141     A.U. after    1 cycles

 Alpha  occ. eigenvalues --  -19.19599 -19.19598 -19.13841 -19.13841 -19.13751
 Alpha  occ. eigenvalues --  -19.13751 -10.33049 -10.33049 -10.29035 -10.29034
 Alpha  occ. eigenvalues --  -10.26947 -10.26947 -10.21985 -10.21984 -10.21602
 Alpha  occ. eigenvalues --  -10.21601 -10.20899 -10.20899 -10.20817 -10.20816
 Alpha  occ. eigenvalues --  -10.20781 -10.20781 -10.18839 -10.18838  -1.13732
 Alpha  occ. eigenvalues --   -1.13732  -1.07157  -1.06970  -1.05439  -1.05438
 Alpha  occ. eigenvalues --   -0.90506  -0.89399  -0.82781  -0.80046  -0.79403
 Alpha  occ. eigenvalues --   -0.79035  -0.76712  -0.75691  -0.70412  -0.68734
 Alpha  occ. eigenvalues --   -0.67137  -0.64542  -0.62881  -0.60751  -0.58879
 Alpha  occ. eigenvalues --   -0.57360  -0.53507  -0.52695  -0.51587  -0.51497
 Alpha  occ. eigenvalues --   -0.50917  -0.50696  -0.50638  -0.49467  -0.47827
 Alpha  occ. eigenvalues --   -0.47263  -0.46405  -0.46275  -0.46205  -0.46180
 Alpha  occ. eigenvalues --   -0.45968  -0.44343  -0.43452  -0.42757  -0.42524
 Alpha  occ. eigenvalues --   -0.42493  -0.41133  -0.40605  -0.40296  -0.40146
 Alpha  occ. eigenvalues --   -0.39104  -0.38995  -0.38112  -0.37050  -0.34386
 Alpha  occ. eigenvalues --   -0.34272  -0.30945  -0.30930  -0.29514  -0.29452
 Alpha  occ. eigenvalues --   -0.28668  -0.28577  -0.28323  -0.27699
 Alpha virt. eigenvalues --   -0.12571  -0.08207  -0.04500  -0.03665  -0.02071
 Alpha virt. eigenvalues --   -0.02024  -0.00914  -0.00522   0.00495   0.00835
 Alpha virt. eigenvalues --    0.01850   0.02239   0.02241   0.02594   0.03326

  Beta  occ. eigenvalues --  -19.19599 -19.19598 -19.13841 -19.13841 -19.13751
  Beta  occ. eigenvalues --  -19.13751 -10.33049 -10.33049 -10.29035 -10.29034
  Beta  occ. eigenvalues --  -10.26947 -10.26947 -10.21985 -10.21984 -10.21602
  Beta  occ. eigenvalues --  -10.21601 -10.20899 -10.20899 -10.20817 -10.20816
  Beta  occ. eigenvalues --  -10.20781 -10.20781 -10.18839 -10.18838  -1.13732
  Beta  occ. eigenvalues --   -1.13732  -1.07157  -1.06970  -1.05439  -1.05438
  Beta  occ. eigenvalues --   -0.90506  -0.89399  -0.82781  -0.80046  -0.79403
  Beta  occ. eigenvalues --   -0.79035  -0.76712  -0.75691  -0.70412  -0.68734
  Beta  occ. eigenvalues --   -0.67137  -0.64542  -0.62881  -0.60751  -0.58879
  Beta  occ. eigenvalues --   -0.57360  -0.53507  -0.52695  -0.51587  -0.51497
  Beta  occ. eigenvalues --   -0.50917  -0.50696  -0.50638  -0.49467  -0.47827
  Beta  occ. eigenvalues --   -0.47263  -0.46405  -0.46275  -0.46205  -0.46180
  Beta  occ. eigenvalues --   -0.45968  -0.44343  -0.43452  -0.42757  -0.42524
  Beta  occ. eigenvalues --   -0.42493  -0.41133  -0.40605  -0.40296  -0.40146
  Beta  occ. eigenvalues --   -0.39104  -0.38995  -0.38112  -0.37050  -0.34386
  Beta  occ. eigenvalues --   -0.34272  -0.30945  -0.30930  -0.29514  -0.29452
  Beta  occ. eigenvalues --   -0.28668  -0.28577  -0.28323  -0.27699
  Beta virt. eigenvalues --   -0.12571  -0.08207  -0.04500  -0.03665  -0.02071
  Beta virt. eigenvalues --   -0.02024  -0.00914  -0.00522   0.00495   0.00835
  Beta virt. eigenvalues --    0.01850   0.02239   0.02241   0.02594   0.03326

 Mulliken charges and spin densities:
               1          2
     1  C    0.294410  -0.000000
     2  C    0.258731  -0.000000
     3  C   -0.851391   0.000000
     4  C    0.197847   0.000000
     5  C    0.467676  -0.000000
     6  C    0.184285   0.000000
     7  C   -0.835863   0.000000
     8  C    0.467940   0.000000
     9  C    0.198021  -0.000000
    10  C   -0.835826   0.000000
    11  C    0.184293   0.000000
    12  C   -0.851830   0.000000
    13  C    0.259197   0.000000
    14  C    0.294472  -0.000000
    15  O   -0.256850  -0.000000
    16  O   -0.256853  -0.000000
    17  H    0.209462   0.000000
    18  H    0.203727   0.000000
    19  H    0.203714   0.000000
    20  H    0.209469  -0.000000
    21  H    0.237707   0.000000
    22  O    0.003739   0.000000
    23  O    0.003775  -0.000000
    24  C    0.127277  -0.000000
    25  C   -0.538391   0.000000
    26  O   -0.271449  -0.000000
    27  H    0.237737   0.000000
    28  H    0.193526  -0.000000
    29  H    0.194249  -0.000000
    30  H    0.180970  -0.000000
    31  C    0.127262  -0.000000
    32  C   -0.538249   0.000000
    33  O   -0.271482   0.000000
    34  H    0.193403   0.000000
    35  H    0.180978   0.000000
    36  H    0.194319  -0.000000
 Sum of Mulliken charges =  -0.00000  -0.00000

 Dipole moment (field-independent basis, Debye):
    X=             -0.0002    Y=              0.0004    Z=              0.0003  Tot=              0.0006
 Quadrupole moment (field-independent basis, Debye-Ang):
   XX=            -82.7978   YY=           -142.2196   ZZ=           -146.2344
   XY=              7.7045   XZ=            -28.6095   YZ=              3.3550

  Exact polarizability: 449.131  13.420 329.632 -23.745   3.329 186.072
 Approx polarizability: 451.911  17.314 426.473 -30.272  -0.329 228.134

                      1                      2                      3
                      A                      A                      A
 Frequencies --     13.1448                16.9354                19.9236
 Red. masses --      9.5353                 9.4932                 7.3626
 Frc consts  --      0.0010                 0.0016                 0.0017
 IR Inten    --      1.8898                 0.0004                 4.8028

                      4                      5                      6
                      A                      A                      A
 Frequencies --     52.7950                55.1617                61.6705
 Red. masses --      1.7237                 1.9157                 6.5762
 Frc consts  --      0.0028                 0.0034                 0.0147
 IR Inten    --     10.5830                 0.0432                 3.7564

                      7                      8                      9
                      A                      A                      A
 Frequencies --     62.9902                78.7176                84.5658
 Red. masses --      3.2366                 1.5055                 1.8483
 Frc consts  --      0.0076                 0.0055                 0.0078
 IR Inten    --      0.0017                 3.0168                 0.0001

                     10                     11                     12
                      A                      A                      A
 Frequencies --    120.6469               124.7398               151.1131
 Red. masses --      4.7105                 6.0076                 9.7947
 Frc consts  --      0.0404                 0.0551                 0.1318
 IR Inten    --      4.1580                 0.0000                13.6517

                     13                     14                     15
                      A                      A                      A
 Frequencies --    181.6556               185.4818               223.8174
 Red. masses --      7.4744                 8.2187                 5.9562
 Frc consts  --      0.1453                 0.1666                 0.1758
 IR Inten    --      5.1150                 0.0000                 0.0000

                     16                     17                     18
                      A                      A                      A
 Frequencies --    268.3910               292.9919               305.6366
 Red. masses --      7.3283                 6.6832                 4.3904
 Frc consts  --      0.3110                 0.3380                 0.2416
 IR Inten    --      0.0000                 0.4643                10.2649

                     19                     20                     21
                      A                      A                      A
 Frequencies --    321.0413               394.8780               402.1633
 Red. masses --      5.6286                 7.1076                 6.1146
 Frc consts  --      0.3418                 0.6530                 0.5827
 IR Inten    --      0.0000                 0.0000                57.7159

                     22                     23                     24
                      A                      A                      A
 Frequencies --    405.6730               416.1941               428.6856
 Red. masses --      5.0888                 6.5468                 3.4217
 Frc consts  --      0.4934                 0.6681                 0.3705
 IR Inten    --      0.0002                32.3001                 3.7979

                     25                     26                     27
                      A                      A                      A
 Frequencies --    446.0648               469.2563               478.4885
 Red. masses --      3.3559                 5.0977                10.7435
 Frc consts  --      0.3934                 0.6614                 1.4492
 IR Inten    --      0.0000                 0.0000                 0.0000

                     28                     29                     30
                      A                      A                      A
 Frequencies --    511.8854               550.6114               561.2835
 Red. masses --      6.9644                 4.8508                 4.5824
 Frc consts  --      1.0752                 0.8665                 0.8506
 IR Inten    --      0.0000                14.3942                40.6166

                     31                     32                     33
                      A                      A                      A
 Frequencies --    597.8276               597.9979               607.4355
 Red. masses --      2.8815                 2.9878                 4.7351
 Frc consts  --      0.6068                 0.6295                 1.0294
 IR Inten    --     18.3952                 0.4875                 0.0002

                     34                     35                     36
                      A                      A                      A
 Frequencies --    660.5507               661.2182               680.6019
 Red. masses --      6.3837                 5.1092                 5.7189
 Frc consts  --      1.6411                 1.3161                 1.5608
 IR Inten    --     43.9926                 0.0005                 8.3143

                     37                     38                     39
                      A                      A                      A
 Frequencies --    699.4169               712.5868               715.0923
 Red. masses --      6.9234                 4.5565                 4.6119
 Frc consts  --      1.9954                 1.3632                 1.3895
 IR Inten    --      0.0000                 0.0000                20.2874

                     40                     41                     42
                      A                      A                      A
 Frequencies --    737.1265               775.0641               794.2407
 Red. masses --      4.3002                 7.1589                 3.6910
 Frc consts  --      1.3766                 2.5338                 1.3718
 IR Inten    --     33.1831                33.1778                 0.0000

                     43                     44                     45
                      A                      A                      A
 Frequencies --    806.6693               852.1524               864.8462
 Red. masses --      4.4500                 2.3863                 2.1431
 Frc consts  --      1.7061                 1.0210                 0.9444
 IR Inten    --      0.0000                16.2671                 0.0000

                     46                     47                     48
                      A                      A                      A
 Frequencies --    879.8120               905.3613               908.8933
 Red. masses --      2.2659                 2.7210                 4.2584
 Frc consts  --      1.0334                 1.3141                 2.0726
 IR Inten    --     66.8022                 0.0000               419.9915

                     49                     50                     51
                      A                      A                      A
 Frequencies --    943.0966               944.9408               997.3751
 Red. masses --      1.9244                 1.9186                 2.9252
 Frc consts  --      1.0084                 1.0093                 1.7144
 IR Inten    --      0.0004               205.4130                 0.0000

                     52                     53                     54
                      A                      A                      A
 Frequencies --   1000.1450              1000.5721              1002.1015
 Red. masses --      1.5191                 1.9129                 1.6546
 Frc consts  --      0.8953                 1.1284                 0.9790
 IR Inten    --      0.0002                68.9879                49.7775

                     55                     56                     57
                      A                      A                      A
 Frequencies --   1019.2233              1024.8685              1062.9647
 Red. masses --      2.0158                 2.0015                 1.7782
 Frc consts  --      1.2338                 1.2386                 1.1838
 IR Inten    --      0.0003               280.3325                 8.7741

                     58                     59                     60
                      A                      A                      A
 Frequencies --   1062.9857              1103.4816              1120.3954
 Red. masses --      1.7782                 2.9987                 1.8033
 Frc consts  --      1.1838                 2.1514                 1.3337
 IR Inten    --     19.3768                46.2620                 0.0000

                     61                     62                     63
                      A                      A                      A
 Frequencies --   1150.8194              1162.1677              1182.8882
 Red. masses --      1.6761                 1.5838                 3.4227
 Frc consts  --      1.3079                 1.2604                 2.8217
 IR Inten    --      0.0000               177.2554              2341.9107

                     64                     65                     66
                      A                      A                      A
 Frequencies --   1188.3304              1217.3947              1226.1473
 Red. masses --      3.8349                 2.5720                 1.7277
 Frc consts  --      3.1907                 2.2459                 1.5304
 IR Inten    --      0.0002                90.6572                 0.0000

                     67                     68                     69
                      A                      A                      A
 Frequencies --   1234.5934              1271.8331              1296.2414
 Red. masses --      7.3859                 1.5562                 2.0389
 Frc consts  --      6.6329                 1.4831                 2.0185
 IR Inten    --      0.0000                21.7501                 0.0000

                     70                     71                     72
                      A                      A                      A
 Frequencies --   1301.8704              1349.0420              1364.8518
 Red. masses --      6.7794                10.6896                 9.7061
 Frc consts  --      6.7698                11.4620                10.6528
 IR Inten    --   1342.4753                31.3172                 0.0000

                     73                     74                     75
                      A                      A                      A
 Frequencies --   1396.6007              1396.6136              1437.8850
 Red. masses --      1.2888                 1.2892                 3.9838
 Frc consts  --      1.4811                 1.4816                 4.8528
 IR Inten    --     29.6158                89.7042                82.5459

                     76                     77                     78
                      A                      A                      A
 Frequencies --   1454.1526              1458.7014              1458.7236
 Red. masses --      4.5156                 1.0557                 1.0593
 Frc consts  --      5.6258                 1.3235                 1.3281
 IR Inten    --      0.0001                49.3092                10.7384

                     79                     80                     81
                      A                      A                      A
 Frequencies --   1462.2870              1462.3713              1506.0202
 Red. masses --      1.0451                 1.0564                 2.9917
 Frc consts  --      1.3167                 1.3311                 3.9978
 IR Inten    --     33.3528                 0.2184                 8.9914

                     82                     83                     84
                      A                      A                      A
 Frequencies --   1514.5906              1604.4937              1616.4369
 Red. masses --      2.9266                 7.8032                 8.7342
 Frc consts  --      3.9555                11.8358                13.4459
 IR Inten    --      0.0000                25.3023                 0.0001

                     85                     86                     87
                      A                      A                      A
 Frequencies --   1619.0828              1629.6267              1698.3314
 Red. masses --      6.7530                 6.4008                12.6115
 Frc consts  --     10.4300                10.0153                21.4320
 IR Inten    --    614.5270                 0.0000                 0.0000

                     88                     89                     90
                      A                      A                      A
 Frequencies --   1706.0914              1785.1430              1785.3386
 Red. masses --     11.7546                11.4843                11.4819
 Frc consts  --     20.1587                21.5626                21.5629
 IR Inten    --    746.5321               910.9302                 0.0002

                     91                     92                     93
                      A                      A                      A
 Frequencies --   3054.8807              3054.8872              3116.4694
 Red. masses --      1.0366                 1.0366                 1.1001
 Frc consts  --      5.6996                 5.6996                 6.2953
 IR Inten    --      0.2685                 0.2286                 2.4195

                     94                     95                     96
                      A                      A                      A
 Frequencies --   3116.4838              3161.9019              3161.9046
 Red. masses --      1.1001                 1.1036                 1.1036
 Frc consts  --      6.2953                 6.5005                 6.5005
 IR Inten    --      2.4633                13.8314                 4.0481

                     97                     98                     99
                      A                      A                      A
 Frequencies --   3198.7728              3198.7746              3210.9026
 Red. masses --      1.0896                 1.0896                 1.0935
 Frc consts  --      6.5690                 6.5690                 6.6424
 IR Inten    --      1.5910                 0.0609                 0.0000

                    100                    101                    102
                      A                      A                      A
 Frequencies --   3211.1165              3211.7582              3212.2127
 Red. masses --      1.0942                 1.0925                 1.0932
 Frc consts  --      6.6476                 6.6400                 6.6462
 IR Inten    --      2.3941                20.4200                 0.0000

 - Thermochemistry -
 -------------------
 Temperature   298.150 Kelvin.  Pressure   1.00000 Atm.
 Atom     1 has atomic number  6 and mass  12.00000

 Molecular mass:   324.06339 amu.
 Principal axes and moments of inertia in atomic units:
                           1         2         3
     Eigenvalues --  2191.77528********************
           X            0.99744  -0.06864   0.02026
           Y            0.06993   0.99497  -0.07177
           Z           -0.01523   0.07301   0.99722
 This molecule is an asymmetric top.
 Rotational symmetry number  1.
 Warning -- assumption of classical behavior for rotation
           may cause significant error
 Rotational temperatures (Kelvin)      0.03952     0.00445     0.00414
 Rotational constants (GHZ):           0.82342     0.09275     0.08619
 Zero-point vibrational energy     683512.6 (Joules/Mol)
                                  163.36343 (Kcal/Mol)
 Warning -- explicit consideration of  33 degrees of freedom as
           vibrations may cause significant error
 Vibrational temperatures:     18.91    24.37    28.67    75.96    79.37
          (Kelvin)             88.73    90.63   113.26   121.67   173.58
                              179.47   217.42   261.36   266.87   322.02
                              386.15   421.55   439.74   461.91   568.14
                              578.62   583.67   598.81   616.78   641.79
                              675.16   688.44   736.49   792.21   807.56
                              860.14   860.39   873.96   950.39   951.35
                              979.23  1006.30  1025.25  1028.86  1060.56
                             1115.14  1142.74  1160.62  1226.06  1244.32
                             1265.85  1302.61  1307.69  1356.91  1359.56
                             1435.00  1438.99  1439.60  1441.80  1466.44
                             1474.56  1529.37  1529.40  1587.66  1612.00
                             1655.77  1672.10  1701.91  1709.74  1751.56
                             1764.15  1776.30  1829.88  1865.00  1873.10
                             1940.97  1963.72  2009.40  2009.42  2068.80
                             2092.20  2098.75  2098.78  2103.90  2104.03
                             2166.83  2179.16  2308.51  2325.69  2329.50
                             2344.67  2443.52  2454.69  2568.42  2568.70
                             4395.29  4395.30  4483.90  4483.93  4549.27
                             4549.28  4602.32  4602.32  4619.77  4620.08
                             4621.00  4621.66

 Zero-point correction=                           0.260336 (Hartree/Particle)
 Thermal correction to Energy=                    0.281448
 Thermal correction to Enthalpy=                  0.282392
 Thermal correction to Gibbs Free Energy=         0.205670
 Sum of electronic and zero-point Energies=          -1144.599635
 Sum of electronic and thermal Energies=             -1144.578524
 Sum of electronic and thermal Enthalpies=           -1144.577579
 Sum of electronic and thermal Free Energies=        -1144.654302

                     E (Thermal)             CV                S
                      KCal/Mol        Cal/Mol-Kelvin    Cal/Mol-Kelvin
 Total                  176.611             77.684            161.476
 Electronic               0.000              0.000              0.000
 Translational            0.889              2.981             43.223
 Rotational               0.889              2.981             35.145
 Vibrational            174.834             71.722             83.109
 Vibration     1          0.593              1.987              7.468
 Vibration     2          0.593              1.986              6.965
 Vibration     3          0.593              1.986              6.642
 Vibration     4          0.596              1.976              4.710
 Vibration     5          0.596              1.976              4.623
 Vibration     6          0.597              1.973              4.403
 Vibration     7          0.597              1.972              4.361
 Vibration     8          0.600              1.963              3.923
 Vibration     9          0.601              1.960              3.782
 Vibration    10          0.609              1.932              3.090
 Vibration    11          0.610              1.928              3.026
 Vibration    12          0.619              1.901              2.658
 Vibration    13          0.630              1.865              2.311
 Vibration    14          0.632              1.860              2.273
 Vibration    15          0.649              1.805              1.928
 Vibration    16          0.673              1.731              1.607
 Vibration    17          0.688              1.687              1.457
 Vibration    18          0.696              1.663              1.386
 Vibration    19          0.707              1.633              1.305
 Vibration    20          0.762              1.481              0.982
 Vibration    21          0.768              1.465              0.955
 Vibration    22          0.771              1.458              0.942
 Vibration    23          0.779              1.435              0.905
 Vibration    24          0.790              1.408              0.863
 Vibration    25          0.805              1.370              0.808
 Vibration    26          0.826              1.318              0.740
 Vibration    27          0.835              1.298              0.714
 Vibration    28          0.867              1.224              0.629
 Vibration    29          0.906              1.138              0.543
 Vibration    30          0.917              1.115              0.521
 Vibration    31          0.956              1.036              0.453
 Vibration    32          0.956              1.036              0.453
 Vibration    33          0.966              1.016              0.437

                           ! Non-Optimized Parameters !
 Normal termination of Gaussian 16 at Sat Feb 10 20:59:03 2024.
