 Q-Chem 5.4, Q-Chem, Inc., Pleasanton, CA (2021)
 Q-Chem 5.4.0 for Intel X86 EM64T Linux

User input:
--------------------------------------------------------------
$molecule
0 1
C                  4.2739220000     -0.0121140000     -0.1603950000
S                  3.0368350000     -1.3405030000     -0.3046120000
C                  1.5329830000     -0.4541930000     -0.1262220000
C                  1.3938550000      0.8782950000      0.0675020000
C                  0.0860020000      1.5324470000      0.2058110000
O                  0.0071690000      2.7411870000      0.3799470000
C                 -1.1330370000      0.6725140000      0.1261790000
C                 -2.3984990000      1.2470140000      0.2512260000
C                 -3.5357800000      0.4482340000      0.1771870000
C                 -3.4156230000     -0.9291500000     -0.0221830000
C                 -2.1577640000     -1.5091770000     -0.1476870000
C                 -1.0118500000     -0.7121700000     -0.0742050000
C                  0.3264550000     -1.3493350000     -0.2106570000
O                  0.4611330000     -2.5466130000     -0.3843450000
H                  4.1611090000      0.7240050000     -0.9573270000
H                  5.2407680000     -0.5044650000     -0.2648130000
H                  4.2245580000      0.4725690000      0.8154880000
H                  2.2397380000      1.5504950000      0.1332400000
H                 -2.4684160000      2.3168170000      0.4052380000
H                 -4.5177710000      0.8971080000      0.2746180000
H                 -4.3036050000     -1.5481880000     -0.0793960000
H                 -2.0421810000     -2.5747790000     -0.3027340000
$end

$rem
BASIS  =  6-311++G(d,p)
GUI  =  2
JOB_TYPE  =  SP
METHOD  =  B3LYP
SCF_CONVERGENCE  = 8
SOLVENT_METHOD = sm12
$end

$smx
solvent dimethylformamide
charges CM5
$end

--------------------------------------------------------------

             Standard Nuclear Orientation (Angstroms)
    I     Atom           X                Y                Z
 ----------------------------------------------------------------
    1      C       4.2739220000    -0.0121140000    -0.1603950000
    2      S       3.0368350000    -1.3405030000    -0.3046120000
    3      C       1.5329830000    -0.4541930000    -0.1262220000
    4      C       1.3938550000     0.8782950000     0.0675020000
    5      C       0.0860020000     1.5324470000     0.2058110000
    6      O       0.0071690000     2.7411870000     0.3799470000
    7      C      -1.1330370000     0.6725140000     0.1261790000
    8      C      -2.3984990000     1.2470140000     0.2512260000
    9      C      -3.5357800000     0.4482340000     0.1771870000
   10      C      -3.4156230000    -0.9291500000    -0.0221830000
   11      C      -2.1577640000    -1.5091770000    -0.1476870000
   12      C      -1.0118500000    -0.7121700000    -0.0742050000
   13      C       0.3264550000    -1.3493350000    -0.2106570000
   14      O       0.4611330000    -2.5466130000    -0.3843450000
   15      H       4.1611090000     0.7240050000    -0.9573270000
   16      H       5.2407680000    -0.5044650000    -0.2648130000
   17      H       4.2245580000     0.4725690000     0.8154880000
   18      H       2.2397380000     1.5504950000     0.1332400000
   19      H      -2.4684160000     2.3168170000     0.4052380000
   20      H      -4.5177710000     0.8971080000     0.2746180000
   21      H      -4.3036050000    -1.5481880000    -0.0793960000
   22      H      -2.0421810000    -2.5747790000    -0.3027340000
 ----------------------------------------------------------------

   15    -972.8005792892      7.92e-09  Convergence criterion met
 Total energy in the final basis set =     -972.8199450731

                    Orbital Energies (a.u.)
 --------------------------------------------------------------

 Alpha MOs
 -- Occupied --
-88.8747 -19.1399 -19.1258 -10.2917 -10.2778 -10.2434 -10.2107 -10.2089
-10.2020 -10.2018 -10.2000 -10.1994 -10.1981 -10.1980  -7.9605  -5.9241
 -5.9200  -5.9152  -1.0754  -1.0581  -0.8924  -0.8601  -0.8037  -0.7797
 -0.7641  -0.7098  -0.6700  -0.6497  -0.6142  -0.5891  -0.5465  -0.5286
 -0.5011  -0.4863  -0.4609  -0.4587  -0.4583  -0.4526  -0.4377  -0.4359
 -0.4260  -0.4192  -0.4028  -0.3829  -0.3810  -0.3711  -0.3459  -0.3303
 -0.2907  -0.2857  -0.2798  -0.2742  -0.2430

          Ground-State Mulliken Net Atomic Charges

     Atom                 Charge (a.u.)
  ----------------------------------------
      1 C                    -0.073199
      2 S                    -0.652398
      3 C                     1.422403
      4 C                     1.203426
      5 C                    -1.137625
      6 O                    -0.323971
      7 C                    -0.187146
      8 C                     0.147495
      9 C                     0.307077
     10 C                     0.388666
     11 C                     0.320464
     12 C                    -0.699144
     13 C                    -2.545915
     14 O                    -0.216476
     15 H                     0.221317
     16 H                     0.276744
     17 H                     0.221377
     18 H                     0.299496
     19 H                     0.174183
     20 H                     0.327598
     21 H                     0.327958
     22 H                     0.197669
  ----------------------------------------
  Sum of atomic charges =     0.000000

                    Cartesian Multipole Moments
 -----------------------------------------------------------------
    Charge (ESU x 10^10)
                -0.0000
    Dipole Moment (Debye)
         X       0.0212      Y       0.0039      Z      -0.0050
       Tot       0.0222
    Quadrupole Moments (Debye-Ang)
        XX     -56.6765     XY       5.4289     YY    -105.1998
        XZ      -0.4046     YZ      -2.2939     ZZ     -90.6086

 Total job time:  310.68s(wall), 2388.30s(cpu)
        *  Thank you very much for using Q-Chem.  Have a nice day.  *
