 Gaussian 16, Revision A.03,
 Gaussian 16:  ES64L-G16RevA.03 25-Dec-2016

 --------------------------------------
 #P UB3LYP/6-311++G(d,p) nosym opt freq
 --------------------------------------

 --------
 Oxidized
 --------
 Symbolic Z-matrix:
 Charge =  0 Multiplicity = 1

 SCF Done:  E(UB3LYP) =  -972.802153222     A.U. after   18 cycles
 Optimization completed.
    -- Stationary point found.
 Normal termination of Gaussian 16 at Mon Jan  8 01:23:05 2024.

 ----------------------------------------------------------------------
 #P Geom=AllCheck Guess=TCheck SCRF=Check GenChk UB3LYP/6-311++G(d,p) F
 req
 ----------------------------------------------------------------------

 Structure from the checkpoint file:  "276.chk"
 --------
 Oxidized
 --------
 Charge =  0 Multiplicity = 1

                          Input orientation:
 ---------------------------------------------------------------------
 Center     Atomic      Atomic             Coordinates (Angstroms)
 Number     Number       Type             X           Y           Z
 ---------------------------------------------------------------------
      1          6           0        4.273922   -0.012114   -0.160395
      2         16           0        3.036835   -1.340503   -0.304612
      3          6           0        1.532983   -0.454193   -0.126222
      4          6           0        1.393855    0.878295    0.067502
      5          6           0        0.086002    1.532447    0.205811
      6          8           0        0.007169    2.741187    0.379947
      7          6           0       -1.133037    0.672514    0.126179
      8          6           0       -2.398499    1.247014    0.251226
      9          6           0       -3.535780    0.448234    0.177187
     10          6           0       -3.415623   -0.929150   -0.022183
     11          6           0       -2.157764   -1.509177   -0.147687
     12          6           0       -1.011850   -0.712170   -0.074205
     13          6           0        0.326455   -1.349335   -0.210657
     14          8           0        0.461133   -2.546613   -0.384345
     15          1           0        4.161109    0.724005   -0.957327
     16          1           0        5.240768   -0.504465   -0.264813
     17          1           0        4.224558    0.472569    0.815488
     18          1           0        2.239738    1.550495    0.133240
     19          1           0       -2.468416    2.316817    0.405238
     20          1           0       -4.517771    0.897108    0.274618
     21          1           0       -4.303605   -1.548188   -0.079396
     22          1           0       -2.042181   -2.574779   -0.302734
 ---------------------------------------------------------------------

 SCF Done:  E(UB3LYP) =  -972.802153222     A.U. after    2 cycles

 Alpha  occ. eigenvalues --  -88.88225 -19.13936 -19.12502 -10.29144 -10.27724
 Alpha  occ. eigenvalues --  -10.24670 -10.21901 -10.21246 -10.21048 -10.20556
 Alpha  occ. eigenvalues --  -10.20474 -10.20386 -10.20295 -10.20084  -7.96777
 Alpha  occ. eigenvalues --   -5.93160  -5.92735  -5.92220  -1.07449  -1.05665
 Alpha  occ. eigenvalues --   -0.89526  -0.86455  -0.81011  -0.78254  -0.77095
 Alpha  occ. eigenvalues --   -0.71551  -0.67693  -0.65328  -0.62034  -0.59129
 Alpha  occ. eigenvalues --   -0.54922  -0.53292  -0.50381  -0.49328  -0.46633
 Alpha  occ. eigenvalues --   -0.46286  -0.46017  -0.45494  -0.45024  -0.44104
 Alpha  occ. eigenvalues --   -0.43213  -0.41720  -0.41504  -0.38615  -0.38572
 Alpha  occ. eigenvalues --   -0.37527  -0.35462  -0.33330  -0.28917  -0.28825
 Alpha  occ. eigenvalues --   -0.28209  -0.27269  -0.24859
 Alpha virt. eigenvalues --   -0.12499  -0.05925  -0.03744  -0.01807  -0.00871
 Alpha virt. eigenvalues --    0.01128   0.01175   0.01568   0.02117   0.02478
 Alpha virt. eigenvalues --    0.03232   0.03716   0.04332   0.04621   0.05027

  Beta  occ. eigenvalues --  -88.88225 -19.13936 -19.12502 -10.29144 -10.27724
  Beta  occ. eigenvalues --  -10.24670 -10.21901 -10.21246 -10.21048 -10.20556
  Beta  occ. eigenvalues --  -10.20474 -10.20386 -10.20295 -10.20084  -7.96777
  Beta  occ. eigenvalues --   -5.93160  -5.92735  -5.92220  -1.07449  -1.05665
  Beta  occ. eigenvalues --   -0.89526  -0.86455  -0.81011  -0.78254  -0.77095
  Beta  occ. eigenvalues --   -0.71551  -0.67693  -0.65328  -0.62034  -0.59129
  Beta  occ. eigenvalues --   -0.54922  -0.53292  -0.50381  -0.49328  -0.46633
  Beta  occ. eigenvalues --   -0.46286  -0.46017  -0.45494  -0.45024  -0.44104
  Beta  occ. eigenvalues --   -0.43213  -0.41720  -0.41504  -0.38615  -0.38572
  Beta  occ. eigenvalues --   -0.37527  -0.35462  -0.33330  -0.28917  -0.28825
  Beta  occ. eigenvalues --   -0.28209  -0.27269  -0.24859
  Beta virt. eigenvalues --   -0.12499  -0.05925  -0.03744  -0.01807  -0.00871
  Beta virt. eigenvalues --    0.01128   0.01175   0.01568   0.02117   0.02478
  Beta virt. eigenvalues --    0.03232   0.03716   0.04332   0.04621   0.05027

 Mulliken charges and spin densities:
               1          2
     1  C   -0.465544  -0.000000
     2  S   -0.518602   0.000000
     3  C    1.045188  -0.000000
     4  C    0.733559  -0.000000
     5  C   -0.583208  -0.000000
     6  O   -0.235528   0.000000
     7  C    0.518823  -0.000000
     8  C    0.269056   0.000000
     9  C   -0.313816  -0.000000
    10  C   -0.355642  -0.000000
    11  C    0.369364  -0.000000
    12  C   -0.091190  -0.000000
    13  C   -1.719882   0.000000
    14  O   -0.168386  -0.000000
    15  H    0.188103  -0.000000
    16  H    0.197031   0.000000
    17  H    0.188169  -0.000000
    18  H    0.217430  -0.000000
    19  H    0.181300  -0.000000
    20  H    0.181035   0.000000
    21  H    0.175766  -0.000000
    22  H    0.186974   0.000000
 Sum of Mulliken charges =  -0.00000   0.00000

 Dipole moment (field-independent basis, Debye):
    X=             -0.0187    Y=              0.1204    Z=              0.0143  Tot=              0.1227
 Quadrupole moment (field-independent basis, Debye-Ang):
   XX=            -62.5777   YY=           -103.9334   ZZ=            -90.5333
   XY=              4.7840   XZ=             -0.2870   YZ=             -2.1038

  Exact polarizability: 222.606 -16.203 175.461  -7.228  13.988  82.939
 Approx polarizability: 307.995 -41.950 367.014 -12.167  35.237 134.032

                      1                      2                      3
                      A                      A                      A
 Frequencies --     42.1527               103.1587               118.3426
 Red. masses --      5.5485                 4.6443                 4.6248
 Frc consts  --      0.0058                 0.0291                 0.0382
 IR Inten    --      6.3834                 0.0003                 0.2220

                      4                      5                      6
                      A                      A                      A
 Frequencies --    134.1595               159.7479               189.4846
 Red. masses --      5.5047                 4.4394                 3.5229
 Frc consts  --      0.0584                 0.0667                 0.0745
 IR Inten    --      3.7827                 1.6589                 0.0057

                      7                      8                      9
                      A                      A                      A
 Frequencies --    233.2286               250.3094               276.0605
 Red. masses --      1.2151                 4.6505                 7.2857
 Frc consts  --      0.0389                 0.1717                 0.3271
 IR Inten    --      0.2547                 3.3008                 0.1254

                     10                     11                     12
                      A                      A                      A
 Frequencies --    360.1824               376.7156               379.8084
 Red. masses --      8.2989                 4.9810                10.9811
 Frc consts  --      0.6343                 0.4165                 0.9333
 IR Inten    --      5.2922                 0.0293                20.5998

                     13                     14                     15
                      A                      A                      A
 Frequencies --    434.6844               460.5021               478.2542
 Red. masses --      3.7607                10.4303                 4.1133
 Frc consts  --      0.4187                 1.3032                 0.5543
 IR Inten    --      0.6839                 4.6334                 0.0584

                     16                     17                     18
                      A                      A                      A
 Frequencies --    501.4271               617.7961               670.1572
 Red. masses --      8.9665                 7.5887                 5.7157
 Frc consts  --      1.3283                 1.7065                 1.5124
 IR Inten    --      0.3962                25.5565                 0.6962

                     19                     20                     21
                      A                      A                      A
 Frequencies --    676.6297               706.7436               716.6046
 Red. masses --      3.7433                 6.2159                 3.2665
 Frc consts  --      1.0097                 1.8293                 0.9883
 IR Inten    --      5.9609                 1.8947                25.0957

                     22                     23                     24
                      A                      A                      A
 Frequencies --    718.1584               788.1465               806.0958
 Red. masses --      6.4288                 1.8968                 2.9405
 Frc consts  --      1.9535                 0.6942                 1.1258
 IR Inten    --      0.6013                34.2467                15.6500

                     25                     26                     27
                      A                      A                      A
 Frequencies --    813.3351               869.6440               884.5554
 Red. masses --      4.8782                 8.6553                 1.5296
 Frc consts  --      1.9013                 3.8567                 0.7051
 IR Inten    --      3.8747                94.1356                16.1767

                     28                     29                     30
                      A                      A                      A
 Frequencies --    915.7422               970.2196               994.8789
 Red. masses --      1.3656                 1.1946                 1.3318
 Frc consts  --      0.6747                 0.6625                 0.7767
 IR Inten    --      0.0609                 2.9418                 1.9753

                     31                     32                     33
                      A                      A                      A
 Frequencies --   1001.5334              1018.0765              1046.1732
 Red. masses --      1.3831                 1.3239                 2.8843
 Frc consts  --      0.8174                 0.8085                 1.8600
 IR Inten    --      1.3836                 0.0257                 7.2420

                     34                     35                     36
                      A                      A                      A
 Frequencies --   1086.1939              1105.1867              1138.6275
 Red. masses --      3.5576                 2.9883                 1.7682
 Frc consts  --      2.4730                 2.1505                 1.3507
 IR Inten    --     25.1719                 7.9029                51.3727

                     37                     38                     39
                      A                      A                      A
 Frequencies --   1183.8439              1242.5290              1272.8750
 Red. masses --      1.1312                 2.1235                 2.2411
 Frc consts  --      0.9341                 1.9316                 2.1393
 IR Inten    --      6.4896                17.1596               201.9638

                     40                     41                     42
                      A                      A                      A
 Frequencies --   1312.2501              1338.4740              1359.9610
 Red. masses --      2.7766                 2.1965                 6.3518
 Frc consts  --      2.8170                 2.3184                 6.9215
 IR Inten    --    237.6732                28.0825                22.2774

                     43                     44                     45
                      A                      A                      A
 Frequencies --   1364.6543              1468.9499              1481.7978
 Red. masses --      1.1874                 1.0505                 1.4008
 Frc consts  --      1.3028                 1.3356                 1.8122
 IR Inten    --      2.6538                11.5674                10.3774

                     46                     47                     48
                      A                      A                      A
 Frequencies --   1482.8966              1505.5757              1596.1830
 Red. masses --      1.5183                 2.6331                 6.9051
 Frc consts  --      1.9672                 3.5165                10.3654
 IR Inten    --      6.9308                 8.9504               155.5703

                     49                     50                     51
                      A                      A                      A
 Frequencies --   1622.2827              1628.8376              1702.3511
 Red. masses --      7.4680                 5.8773                11.1386
 Frc consts  --     11.5799                 9.1872                19.0187
 IR Inten    --     41.0745                90.7538               206.9945

                     52                     53                     54
                      A                      A                      A
 Frequencies --   1727.8748              3041.0970              3124.4495
 Red. masses --     12.6932                 1.0299                 1.1078
 Frc consts  --     22.3277                 5.6118                 6.3717
 IR Inten    --    242.2030                14.4902                 5.7929

                     55                     56                     57
                      A                      A                      A
 Frequencies --   3136.9363              3170.9259              3185.0795
 Red. masses --      1.1033                 1.0870                 1.0916
 Frc consts  --      6.3966                 6.4394                 6.5245
 IR Inten    --      2.4119                 3.3226                 8.9272

                     58                     59                     60
                      A                      A                      A
 Frequencies --   3199.1230              3199.5217              3202.1318
 Red. masses --      1.0913                 1.0914                 1.0952
 Frc consts  --      6.5806                 6.5824                 6.6164
 IR Inten    --      2.4107                 1.3464                 9.7712

 - Thermochemistry -
 -------------------
 Temperature   298.150 Kelvin.  Pressure   1.00000 Atm.
 Atom     1 has atomic number  6 and mass  12.00000

 Molecular mass:   204.02450 amu.
 Principal axes and moments of inertia in atomic units:
                           1         2         3
     Eigenvalues --  1486.187174095.510545570.14392
           X            0.98626   0.16154   0.03445
           Y           -0.15527   0.97788  -0.14017
           Z           -0.05633   0.13290   0.98953
 This molecule is an asymmetric top.
 Rotational symmetry number  1.
 Warning -- assumption of classical behavior for rotation
           may cause significant error
 Rotational temperatures (Kelvin)      0.05828     0.02115     0.01555
 Rotational constants (GHZ):           1.21434     0.44066     0.32400
 Zero-point vibrational energy     422241.8 (Joules/Mol)
                                  100.91821 (Kcal/Mol)
 Warning -- explicit consideration of  17 degrees of freedom as
           vibrations may cause significant error
 Vibrational temperatures:     60.65   148.42   170.27   193.03   229.84
          (Kelvin)            272.63   335.56   360.14   397.19   518.22
                              542.01   546.46   625.41   662.56   688.10
                              721.44   888.87   964.21   973.52  1016.85
                             1031.03  1033.27  1133.97  1159.79  1170.21
                             1251.22  1272.68  1317.55  1395.93  1431.41
                             1440.98  1464.79  1505.21  1562.79  1590.12
                             1638.23  1703.29  1787.72  1831.38  1888.04
                             1925.77  1956.68  1963.43  2113.49  2131.98
                             2133.56  2166.19  2296.55  2334.10  2343.53
                             2449.30  2486.03  4375.46  4495.39  4513.35
                             4562.26  4582.62  4602.82  4603.40  4607.15

 Zero-point correction=                           0.160823 (Hartree/Particle)
 Thermal correction to Energy=                    0.172758
 Thermal correction to Enthalpy=                  0.173702
 Thermal correction to Gibbs Free Energy=         0.122216
 Sum of electronic and zero-point Energies=           -972.641330
 Sum of electronic and thermal Energies=              -972.629396
 Sum of electronic and thermal Enthalpies=            -972.628451
 Sum of electronic and thermal Free Energies=         -972.679937

                     E (Thermal)             CV                S
                      KCal/Mol        Cal/Mol-Kelvin    Cal/Mol-Kelvin
 Total                  108.407             45.549            108.360
 Electronic               0.000              0.000              0.000
 Translational            0.889              2.981             41.844
 Rotational               0.889              2.981             31.895
 Vibrational            106.630             39.587             34.622
 Vibration     1          0.595              1.980              5.155
 Vibration     2          0.605              1.947              3.394
 Vibration     3          0.609              1.934              3.127
 Vibration     4          0.613              1.919              2.886
 Vibration     5          0.622              1.892              2.553
 Vibration     6          0.633              1.854              2.233
 Vibration     7          0.654              1.790              1.854
 Vibration     8          0.663              1.762              1.728
 Vibration     9          0.678              1.718              1.558
 Vibration    10          0.735              1.554              1.121
 Vibration    11          0.747              1.520              1.052
 Vibration    12          0.750              1.513              1.040
 Vibration    13          0.795              1.395              0.843
 Vibration    14          0.818              1.338              0.765
 Vibration    15          0.835              1.298              0.715
 Vibration    16          0.857              1.247              0.655
 Vibration    17          0.978              0.994              0.420

                           ! Non-Optimized Parameters !
 Normal termination of Gaussian 16 at Mon Jan  8 01:38:22 2024.
