 Q-Chem 5.4, Q-Chem, Inc., Pleasanton, CA (2021)
 Q-Chem 5.4.0 for Intel X86 EM64T Linux

User input:
--------------------------------------------------------------
$molecule
-2 1
C                 -3.4415970000     -2.7536440000     -0.3532310000
O                 -2.1596400000     -2.2348370000     -0.1924180000
C                 -2.0038290000     -0.8478990000     -0.2019930000
C                 -3.0865460000     -0.0074970000     -0.3614360000
C                 -2.9358910000      1.4015920000     -0.3718990000
C                 -1.6921310000      2.0114230000     -0.2224170000
O                 -1.5451550000      3.3137540000     -0.2309510000
C                 -0.5243780000      1.1243450000     -0.0512740000
C                  0.7495870000      1.7255960000      0.1014750000
O                  0.8926280000      3.0955720000      0.0903750000
C                  1.8936150000      0.9360700000      0.2672110000
C                  3.1946280000      1.5118480000      0.4240900000
C                  4.3136950000      0.7286290000      0.5863430000
C                  4.1999770000     -0.6906770000      0.6018660000
C                  2.9506850000     -1.2674220000      0.4518210000
C                  1.7774990000     -0.5031060000      0.2830160000
C                  0.4959290000     -1.1923210000      0.1313980000
O                  0.4541080000     -2.4605490000      0.1534860000
C                 -0.6718320000     -0.3234480000     -0.0394320000
H                 -3.3349690000     -3.8425980000     -0.3172110000
H                 -4.1343600000     -2.4379660000      0.4467750000
H                 -3.8983690000     -2.4730090000     -1.3186980000
H                 -4.0840830000     -0.4147000000     -0.4829920000
H                 -3.8046100000      2.0430010000     -0.4992760000
H                 -0.0715500000      3.4237020000     -0.0421990000
H                  3.2698280000      2.5937930000      0.4107970000
H                  5.2905250000      1.1963630000      0.7034200000
H                  5.0849870000     -1.3105830000      0.7301990000
H                  2.8212480000     -2.3454300000      0.4580660000
$end

$rem
BASIS  =  6-311++G(d,p)
GUI  =  2
JOB_TYPE  =  SP
METHOD  =  B3LYP
SCF_CONVERGENCE  = 8
SOLVENT_METHOD = sm12
$end

$smx
solvent dimethylformamide
charges CM5
$end

--------------------------------------------------------------

             Standard Nuclear Orientation (Angstroms)
    I     Atom           X                Y                Z
 ----------------------------------------------------------------
    1      C      -3.4415970000    -2.7536440000    -0.3532310000
    2      O      -2.1596400000    -2.2348370000    -0.1924180000
    3      C      -2.0038290000    -0.8478990000    -0.2019930000
    4      C      -3.0865460000    -0.0074970000    -0.3614360000
    5      C      -2.9358910000     1.4015920000    -0.3718990000
    6      C      -1.6921310000     2.0114230000    -0.2224170000
    7      O      -1.5451550000     3.3137540000    -0.2309510000
    8      C      -0.5243780000     1.1243450000    -0.0512740000
    9      C       0.7495870000     1.7255960000     0.1014750000
   10      O       0.8926280000     3.0955720000     0.0903750000
   11      C       1.8936150000     0.9360700000     0.2672110000
   12      C       3.1946280000     1.5118480000     0.4240900000
   13      C       4.3136950000     0.7286290000     0.5863430000
   14      C       4.1999770000    -0.6906770000     0.6018660000
   15      C       2.9506850000    -1.2674220000     0.4518210000
   16      C       1.7774990000    -0.5031060000     0.2830160000
   17      C       0.4959290000    -1.1923210000     0.1313980000
   18      O       0.4541080000    -2.4605490000     0.1534860000
   19      C      -0.6718320000    -0.3234480000    -0.0394320000
   20      H      -3.3349690000    -3.8425980000    -0.3172110000
   21      H      -4.1343600000    -2.4379660000     0.4467750000
   22      H      -3.8983690000    -2.4730090000    -1.3186980000
   23      H      -4.0840830000    -0.4147000000    -0.4829920000
   24      H      -3.8046100000     2.0430010000    -0.4992760000
   25      H      -0.0715500000     3.4237020000    -0.0421990000
   26      H       3.2698280000     2.5937930000     0.4107970000
   27      H       5.2905250000     1.1963630000     0.7034200000
   28      H       5.0849870000    -1.3105830000     0.7301990000
   29      H       2.8212480000    -2.3454300000     0.4580660000
 ----------------------------------------------------------------

   18    -878.7356082534      3.66e-09  Convergence criterion met
 Total energy in the final basis set =     -879.0120892046

                    Orbital Energies (a.u.)
 --------------------------------------------------------------

 Alpha MOs
 -- Occupied --
-19.1295 -19.0942 -19.0473 -19.0326 -10.2133 -10.2097 -10.2032 -10.2008
-10.1949 -10.1778 -10.1724 -10.1713 -10.1701 -10.1640 -10.1630 -10.1594
-10.1559 -10.1552 -10.1401  -1.0458  -1.0110  -0.9575  -0.9532  -0.8501
 -0.8211  -0.7759  -0.7478  -0.7297  -0.7211  -0.6769  -0.6565  -0.6231
 -0.6131  -0.5689  -0.5530  -0.5258  -0.5222  -0.4951  -0.4743  -0.4624
 -0.4538  -0.4518  -0.4352  -0.4287  -0.4185  -0.4141  -0.4054  -0.3960
 -0.3797  -0.3747  -0.3683  -0.3664  -0.3552  -0.3486  -0.3369  -0.3288
 -0.3226  -0.3191  -0.3150  -0.2689  -0.2568  -0.2480  -0.2355  -0.2234
 -0.1992  -0.1805  -0.1265

          Ground-State Mulliken Net Atomic Charges

     Atom                 Charge (a.u.)
  ----------------------------------------
      1 C                     0.448734
      2 O                    -0.030600
      3 C                    -0.047156
      4 C                     1.947741
      5 C                    -0.144527
      6 C                    -1.298700
      7 O                    -0.442594
      8 C                    -1.786692
      9 C                    -1.627343
     10 O                    -0.299259
     11 C                    -1.208923
     12 C                     0.494146
     13 C                     1.830093
     14 C                     1.517558
     15 C                     0.240589
     16 C                    -1.413880
     17 C                    -1.770955
     18 O                    -0.288500
     19 C                    -0.903914
     20 H                     0.357438
     21 H                     0.188410
     22 H                     0.188494
     23 H                     0.359268
     24 H                     0.168866
     25 H                     0.415057
     26 H                     0.177823
     27 H                     0.415785
     28 H                     0.372976
     29 H                     0.140066
  ----------------------------------------
  Sum of atomic charges =    -2.000000

                    Cartesian Multipole Moments
 -----------------------------------------------------------------
    Charge (ESU x 10^10)
                -9.6064
    Dipole Moment (Debye)
         X      -1.4219      Y      -5.8465      Z      -0.4588
       Tot       6.0344
    Quadrupole Moments (Debye-Ang)
        XX    -155.7212     XY      14.8350     YY    -177.3949
        XZ      -4.4832     YZ       2.8501     ZZ    -124.6980

 Total job time:  827.58s(wall), 6298.83s(cpu)
        *  Thank you very much for using Q-Chem.  Have a nice day.  *
