 Gaussian 16, Revision A.03,
 Gaussian 16:  ES64L-G16RevA.03 25-Dec-2016

 --------------------------------------
 #P UB3LYP/6-311++G(d,p) nosym opt freq
 --------------------------------------

 -------
 Reduced
 -------
 Symbolic Z-matrix:
 Charge = -2 Multiplicity = 1

 SCF Done:  E(UB3LYP) =  -878.744380473     A.U. after   26 cycles
 Optimization completed.
    -- Stationary point found.
 Normal termination of Gaussian 16 at Wed Dec 27 21:09:24 2023.

 ----------------------------------------------------------------------
 #P Geom=AllCheck Guess=TCheck SCRF=Check GenChk UB3LYP/6-311++G(d,p) F
 req
 ----------------------------------------------------------------------

 Structure from the checkpoint file:  "179-an.chk"
 -------
 Reduced
 -------
 Charge = -2 Multiplicity = 1

                          Input orientation:
 ---------------------------------------------------------------------
 Center     Atomic      Atomic             Coordinates (Angstroms)
 Number     Number       Type             X           Y           Z
 ---------------------------------------------------------------------
      1          6           0       -3.441597   -2.753644   -0.353231
      2          8           0       -2.159640   -2.234837   -0.192418
      3          6           0       -2.003829   -0.847899   -0.201993
      4          6           0       -3.086546   -0.007497   -0.361436
      5          6           0       -2.935891    1.401592   -0.371899
      6          6           0       -1.692131    2.011423   -0.222417
      7          8           0       -1.545155    3.313754   -0.230951
      8          6           0       -0.524378    1.124345   -0.051274
      9          6           0        0.749587    1.725596    0.101475
     10          8           0        0.892628    3.095572    0.090375
     11          6           0        1.893615    0.936070    0.267211
     12          6           0        3.194628    1.511848    0.424090
     13          6           0        4.313695    0.728629    0.586343
     14          6           0        4.199977   -0.690677    0.601866
     15          6           0        2.950685   -1.267422    0.451821
     16          6           0        1.777499   -0.503106    0.283016
     17          6           0        0.495929   -1.192321    0.131398
     18          8           0        0.454108   -2.460549    0.153486
     19          6           0       -0.671832   -0.323448   -0.039432
     20          1           0       -3.334969   -3.842598   -0.317211
     21          1           0       -4.134360   -2.437966    0.446775
     22          1           0       -3.898369   -2.473009   -1.318698
     23          1           0       -4.084083   -0.414700   -0.482992
     24          1           0       -3.804610    2.043001   -0.499276
     25          1           0       -0.071550    3.423702   -0.042199
     26          1           0        3.269828    2.593793    0.410797
     27          1           0        5.290525    1.196363    0.703420
     28          1           0        5.084987   -1.310583    0.730199
     29          1           0        2.821248   -2.345430    0.458066
 ---------------------------------------------------------------------

 SCF Done:  E(UB3LYP) =  -878.744380473     A.U. after    1 cycles

 Alpha  occ. eigenvalues --  -18.90417 -18.84398 -18.79919 -18.78167 -10.01065
 Alpha  occ. eigenvalues --   -9.96705  -9.95250  -9.95216  -9.94346  -9.93630
 Alpha  occ. eigenvalues --   -9.92840  -9.92683  -9.92343  -9.91337  -9.91324
 Alpha  occ. eigenvalues --   -9.91200  -9.90980  -9.90542  -9.89226  -0.82068
 Alpha  occ. eigenvalues --   -0.76105  -0.70638  -0.70451  -0.60361  -0.57591
 Alpha  occ. eigenvalues --   -0.52957  -0.50168  -0.50011  -0.47752  -0.44291
 Alpha  occ. eigenvalues --   -0.41188  -0.37749  -0.36743  -0.32383  -0.31432
 Alpha  occ. eigenvalues --   -0.28810  -0.28209  -0.25159  -0.24510  -0.24044
 Alpha  occ. eigenvalues --   -0.22003  -0.20679  -0.19375  -0.18839  -0.18054
 Alpha  occ. eigenvalues --   -0.17247  -0.15529  -0.15013  -0.13854  -0.12917
 Alpha  occ. eigenvalues --   -0.12261  -0.12091  -0.11142  -0.10588  -0.09170
 Alpha  occ. eigenvalues --   -0.08465  -0.08253  -0.08055  -0.07261  -0.02807
 Alpha  occ. eigenvalues --   -0.01098  -0.00046   0.01527   0.02428   0.04968
 Alpha  occ. eigenvalues --    0.06646   0.12233
 Alpha virt. eigenvalues --    0.15120   0.15909   0.17643   0.17808   0.19002
 Alpha virt. eigenvalues --    0.19438   0.20232   0.20760   0.21241   0.22430
 Alpha virt. eigenvalues --    0.22873   0.23305   0.24036   0.25168   0.26259

  Beta  occ. eigenvalues --  -18.90417 -18.84398 -18.79919 -18.78167 -10.01065
  Beta  occ. eigenvalues --   -9.96705  -9.95250  -9.95216  -9.94346  -9.93630
  Beta  occ. eigenvalues --   -9.92840  -9.92683  -9.92343  -9.91337  -9.91324
  Beta  occ. eigenvalues --   -9.91200  -9.90980  -9.90542  -9.89226  -0.82068
  Beta  occ. eigenvalues --   -0.76105  -0.70638  -0.70451  -0.60361  -0.57591
  Beta  occ. eigenvalues --   -0.52957  -0.50168  -0.50011  -0.47752  -0.44291
  Beta  occ. eigenvalues --   -0.41188  -0.37749  -0.36743  -0.32383  -0.31432
  Beta  occ. eigenvalues --   -0.28810  -0.28209  -0.25159  -0.24510  -0.24044
  Beta  occ. eigenvalues --   -0.22003  -0.20679  -0.19375  -0.18839  -0.18054
  Beta  occ. eigenvalues --   -0.17247  -0.15529  -0.15013  -0.13854  -0.12917
  Beta  occ. eigenvalues --   -0.12261  -0.12091  -0.11142  -0.10588  -0.09170
  Beta  occ. eigenvalues --   -0.08465  -0.08253  -0.08055  -0.07261  -0.02807
  Beta  occ. eigenvalues --   -0.01098  -0.00046   0.01527   0.02428   0.04968
  Beta  occ. eigenvalues --    0.06646   0.12233
  Beta virt. eigenvalues --    0.15120   0.15909   0.17643   0.17808   0.19002
  Beta virt. eigenvalues --    0.19438   0.20232   0.20760   0.21241   0.22430
  Beta virt. eigenvalues --    0.22873   0.23305   0.24036   0.25168   0.26259

 Mulliken charges and spin densities:
               1          2
     1  C   -0.246295  -0.000000
     2  O   -0.084083   0.000000
     3  C   -0.320979  -0.000000
     4  C   -0.194986  -0.000000
     5  C   -0.098636  -0.000000
     6  C   -0.791142   0.000000
     7  O   -0.567252  -0.000000
     8  C    0.758946  -0.000000
     9  C    0.056445  -0.000000
    10  O   -0.491255   0.000000
    11  C    0.385205  -0.000000
    12  C   -0.176880   0.000000
    13  C   -0.487259  -0.000000
    14  C   -0.553024  -0.000000
    15  C   -0.011902   0.000000
    16  C    0.125234   0.000000
    17  C   -0.428048   0.000000
    18  O   -0.474879  -0.000000
    19  C    0.327472  -0.000000
    20  H    0.142976   0.000000
    21  H    0.077102   0.000000
    22  H    0.077356   0.000000
    23  H    0.102908  -0.000000
    24  H    0.073063  -0.000000
    25  H    0.404723  -0.000000
    26  H    0.119659  -0.000000
    27  H    0.073660  -0.000000
    28  H    0.075177  -0.000000
    29  H    0.126696  -0.000000
 Sum of Mulliken charges =  -2.00000   0.00000

 Dipole moment (field-independent basis, Debye):
    X=             -1.5361    Y=             -4.7066    Z=             -0.4951  Tot=              4.9756
 Quadrupole moment (field-independent basis, Debye-Ang):
   XX=           -169.5142   YY=           -179.8991   ZZ=           -124.6573
   XY=             10.5314   XZ=             -6.2336   YZ=              2.3920

  Exact polarizability: 429.209  10.656 270.820  36.433  -0.962 153.795
 Approx polarizability: 681.835  -2.149 485.376  61.865  -6.101 215.930

                      1                      2                      3
                      A                      A                      A
 Frequencies --     24.9232                41.9617                63.8742
 Red. masses --      3.3550                 6.6721                 5.9522
 Frc consts  --      0.0012                 0.0069                 0.0143
 IR Inten    --      4.5821                 1.7134                 0.0179

                      4                      5                      6
                      A                      A                      A
 Frequencies --    101.1430               132.1773               171.8030
 Red. masses --      6.4412                 4.6596                 7.6005
 Frc consts  --      0.0388                 0.0480                 0.1322
 IR Inten    --      0.2006                 0.2538                 0.4844

                      7                      8                      9
                      A                      A                      A
 Frequencies --    174.3684               258.8424               261.0221
 Red. masses --      4.4398                 5.5274                 5.0847
 Frc consts  --      0.0795                 0.2182                 0.2041
 IR Inten    --      9.8289                 0.0061                 1.6404

                     10                     11                     12
                      A                      A                      A
 Frequencies --    269.3879               326.8241               350.6363
 Red. masses --      1.1765                 4.5522                 8.6074
 Frc consts  --      0.0503                 0.2865                 0.6235
 IR Inten    --      0.4111                 1.5601                10.7812

                     13                     14                     15
                      A                      A                      A
 Frequencies --    358.8547               362.4868               368.8469
 Red. masses --      8.8099                 4.9268                 7.4255
 Frc consts  --      0.6684                 0.3814                 0.5952
 IR Inten    --      0.1644                 0.0079                 0.1521

                     16                     17                     18
                      A                      A                      A
 Frequencies --    404.1968               429.4092               439.8482
 Red. masses --      6.6835                 8.3305                 3.3563
 Frc consts  --      0.6433                 0.9050                 0.3826
 IR Inten    --     35.8075                 2.3779                 1.4976

                     19                     20                     21
                      A                      A                      A
 Frequencies --    481.1127               487.9180               524.4528
 Red. masses --     11.3151                 4.4435                 8.1948
 Frc consts  --      1.5431                 0.6233                 1.3280
 IR Inten    --      2.4012                 0.7819                 2.5596

                     22                     23                     24
                      A                      A                      A
 Frequencies --    552.8269               580.7096               606.5359
 Red. masses --      6.7746                 2.8313                 4.3538
 Frc consts  --      1.2199                 0.5625                 0.9437
 IR Inten    --      4.3706                42.0593                 5.3518

                     25                     26                     27
                      A                      A                      A
 Frequencies --    610.6168               656.2832               687.5596
 Red. masses --      5.2972                 6.3810                 1.4906
 Frc consts  --      1.1637                 1.6193                 0.4152
 IR Inten    --     15.8742                 0.2936                12.8643

                     28                     29                     30
                      A                      A                      A
 Frequencies --    706.2598               709.6270               722.7124
 Red. masses --      3.3352                 5.7777                 2.0358
 Frc consts  --      0.9802                 1.7142                 0.6265
 IR Inten    --      4.3906                 5.6450                53.7010

                     31                     32                     33
                      A                      A                      A
 Frequencies --    743.8872               761.7099               778.6011
 Red. masses --      6.9129                 1.5866                 2.3811
 Frc consts  --      2.2539                 0.5424                 0.8505
 IR Inten    --     53.4448                 9.1138                 5.5732

                     34                     35                     36
                      A                      A                      A
 Frequencies --    781.7613               802.7011               835.2598
 Red. masses --      1.7611                 6.0454                 6.9644
 Frc consts  --      0.6341                 2.2950                 2.8627
 IR Inten    --     10.4344                 2.0537                30.0663

                     37                     38                     39
                      A                      A                      A
 Frequencies --    888.0900               930.5726               934.2794
 Red. masses --      8.7730                 1.2381                 5.8681
 Frc consts  --      4.0768                 0.6317                 3.0179
 IR Inten    --     73.4787                 2.2850                15.6933

                     40                     41                     42
                      A                      A                      A
 Frequencies --    958.2313              1013.1025              1013.2830
 Red. masses --      1.3122                 2.3000                 1.0509
 Frc consts  --      0.7099                 1.3909                 0.6358
 IR Inten    --      1.7341                61.1929                61.1222

                     43                     44                     45
                      A                      A                      A
 Frequencies --   1052.3044              1078.4315              1107.1396
 Red. masses --      3.4350                 3.9142                 2.8654
 Frc consts  --      2.2411                 2.6821                 2.0694
 IR Inten    --     42.0726               151.6429                98.3017

                     46                     47                     48
                      A                      A                      A
 Frequencies --   1126.0738              1147.9812              1156.4054
 Red. masses --      1.4916                 1.5062                 1.2887
 Frc consts  --      1.1144                 1.1695                 1.0153
 IR Inten    --    119.2868                54.3894                 0.4026

                     49                     50                     51
                      A                      A                      A
 Frequencies --   1170.2543              1191.3332              1213.0395
 Red. masses --      2.1314                 1.8625                 3.1175
 Frc consts  --      1.7198                 1.5575                 2.7027
 IR Inten    --     11.0105                73.7842                97.3293

                     52                     53                     54
                      A                      A                      A
 Frequencies --   1227.2375              1246.2541              1277.2326
 Red. masses --      2.3422                 2.1137                 5.8310
 Frc consts  --      2.0784                 1.9342                 5.6044
 IR Inten    --    246.7328                27.1443                 2.1383

                     55                     56                     57
                      A                      A                      A
 Frequencies --   1308.1831              1325.9860              1356.9111
 Red. masses --      3.8177                 4.1009                 5.7596
 Frc consts  --      3.8494                 4.2482                 6.2481
 IR Inten    --    181.7148                29.8483               161.8279

                     58                     59                     60
                      A                      A                      A
 Frequencies --   1380.0576              1409.1240              1431.8639
 Red. masses --      3.1289                 3.1786                 3.6437
 Frc consts  --      3.5111                 3.7186                 4.4014
 IR Inten    --     28.3638               186.0048               119.3577

                     61                     62                     63
                      A                      A                      A
 Frequencies --   1454.9088              1459.7175              1464.8829
 Red. masses --      2.2970                 1.4048                 1.0517
 Frc consts  --      2.8648                 1.7636                 1.3296
 IR Inten    --    382.7386                53.4856                 0.9628

                     64                     65                     66
                      A                      A                      A
 Frequencies --   1496.8744              1503.5748              1507.7118
 Red. masses --      2.6252                 1.2133                 4.5212
 Frc consts  --      3.4657                 1.6161                 6.0553
 IR Inten    --    429.8489                12.0542               138.5755

                     67                     68                     69
                      A                      A                      A
 Frequencies --   1522.2255              1562.3295              1576.3575
 Red. masses --      5.2643                 4.8954                 5.1508
 Frc consts  --      7.1871                 7.0402                 7.5411
 IR Inten    --    315.2946                49.1888                73.0336

                     70                     71                     72
                      A                      A                      A
 Frequencies --   1614.4448              1663.9514              2612.9961
 Red. masses --      5.6104                 1.7643                 1.0820
 Frc consts  --      8.6158                 2.8780                 4.3528
 IR Inten    --     81.8514                22.3989               735.3943

                     73                     74                     75
                      A                      A                      A
 Frequencies --   2906.7028              2923.2143              3044.9899
 Red. masses --      1.0387                 1.1015                 1.0900
 Frc consts  --      5.1708                 5.5456                 5.9543
 IR Inten    --    249.9494               237.7640                86.2343

                     76                     77                     78
                      A                      A                      A
 Frequencies --   3090.5425              3117.0056              3121.2390
 Red. masses --      1.0831                 1.0900                 1.0857
 Frc consts  --      6.0951                 6.2397                 6.2320
 IR Inten    --     50.3010               115.5123                78.0678

                     79                     80                     81
                      A                      A                      A
 Frequencies --   3157.9908              3159.8899              3168.7178
 Red. masses --      1.0905                 1.0890                 1.0909
 Frc consts  --      6.4075                 6.4068                 6.4538
 IR Inten    --     43.1408                56.0041                40.1164

 - Thermochemistry -
 -------------------
 Temperature   298.150 Kelvin.  Pressure   1.00000 Atm.
 Atom     1 has atomic number  6 and mass  12.00000

 Molecular mass:   254.05791 amu.
 Principal axes and moments of inertia in atomic units:
                           1         2         3
     Eigenvalues --  3034.428005451.096848474.09992
           X            0.97616  -0.17440  -0.12921
           Y            0.17853   0.98371   0.02104
           Z            0.12344  -0.04360   0.99139
 This molecule is an asymmetric top.
 Rotational symmetry number  1.
 Warning -- assumption of classical behavior for rotation
           may cause significant error
 Rotational temperatures (Kelvin)      0.02854     0.01589     0.01022
 Rotational constants (GHZ):           0.59475     0.33108     0.21297
 Zero-point vibrational energy     548157.5 (Joules/Mol)
                                  131.01279 (Kcal/Mol)
 Warning -- explicit consideration of  25 degrees of freedom as
           vibrations may cause significant error
 Vibrational temperatures:     35.86    60.37    91.90   145.52   190.17
          (Kelvin)            247.19   250.88   372.42   375.55   387.59
                              470.23   504.49   516.31   521.54   530.69
                              581.55   617.82   632.84   692.21   702.01
                              754.57   795.39   835.51   872.67   878.54
                              944.25   989.24  1016.15  1020.99  1039.82
                             1070.29  1095.93  1120.23  1124.78  1154.91
                             1201.75  1277.76  1338.89  1344.22  1378.68
                             1457.63  1457.89  1514.03  1551.62  1592.93
                             1620.17  1651.69  1663.81  1683.73  1714.06
                             1745.29  1765.72  1793.08  1837.65  1882.18
                             1907.80  1952.29  1985.60  2027.42  2060.13
                             2093.29  2100.21  2107.64  2153.67  2163.31
                             2169.26  2190.14  2247.84  2268.03  2322.83
                             2394.05  3759.52  4182.10  4205.85  4381.06
                             4446.60  4484.68  4490.77  4543.64  4546.38
                             4559.08

 Zero-point correction=                           0.208782 (Hartree/Particle)
 Thermal correction to Energy=                    0.223855
 Thermal correction to Enthalpy=                  0.224800
 Thermal correction to Gibbs Free Energy=         0.165759
 Sum of electronic and zero-point Energies=           -878.535598
 Sum of electronic and thermal Energies=              -878.520525
 Sum of electronic and thermal Enthalpies=            -878.519581
 Sum of electronic and thermal Free Energies=         -878.578621

                     E (Thermal)             CV                S
                      KCal/Mol        Cal/Mol-Kelvin    Cal/Mol-Kelvin
 Total                  140.471             59.928            124.262
 Electronic               0.000              0.000              0.000
 Translational            0.889              2.981             42.497
 Rotational               0.889              2.981             33.305
 Vibrational            138.694             53.966             48.460
 Vibration     1          0.593              1.985              6.197
 Vibration     2          0.595              1.980              5.164
 Vibration     3          0.597              1.972              4.334
 Vibration     4          0.604              1.948              3.432
 Vibration     5          0.612              1.921              2.914
 Vibration     6          0.626              1.877              2.416
 Vibration     7          0.627              1.874              2.388
 Vibration     8          0.668              1.748              1.670
 Vibration     9          0.669              1.744              1.655
 Vibration    10          0.674              1.729              1.600
 Vibration    11          0.710              1.622              1.276
 Vibration    12          0.728              1.574              1.163
 Vibration    13          0.734              1.557              1.127
 Vibration    14          0.736              1.550              1.111
 Vibration    15          0.741              1.536              1.085
 Vibration    16          0.769              1.461              0.947
 Vibration    17          0.791              1.406              0.861
 Vibration    18          0.800              1.383              0.827
 Vibration    19          0.837              1.292              0.707
 Vibration    20          0.844              1.277              0.689
 Vibration    21          0.879              1.196              0.600
 Vibration    22          0.908              1.134              0.538
 Vibration    23          0.937              1.073              0.484
 Vibration    24          0.965              1.018              0.439
 Vibration    25          0.970              1.009              0.432

                           ! Non-Optimized Parameters !
 Normal termination of Gaussian 16 at Wed Dec 27 22:26:04 2023.
