 Q-Chem 5.4, Q-Chem, Inc., Pleasanton, CA (2021)
 Q-Chem 5.4.0 for Intel X86 EM64T Linux

User input:
--------------------------------------------------------------
$molecule
-2 1
C                 -4.3777060000     -0.4541030000     -0.0669050000
C                 -2.8933770000     -0.7010510000     -0.0796060000
C                 -2.3864280000     -1.9992180000     -0.3302720000
C                 -1.0365490000     -2.2461390000     -0.3245450000
Cl                -0.6230090000     -3.9602280000     -0.6918430000
C                 -0.0503350000     -1.2416320000     -0.0847340000
C                  1.3754960000     -1.5325540000     -0.0189960000
O                  1.8708890000     -2.7056130000     -0.0605480000
C                  2.2404820000     -0.3699210000      0.1022700000
C                  3.6432250000     -0.5633560000      0.1185540000
C                  4.5300060000      0.4892190000      0.2270630000
C                  4.0289680000      1.8166590000      0.3333930000
C                  2.6682560000      2.0364280000      0.3226010000
C                  1.7342500000      0.9708120000      0.2076580000
C                  0.3265890000      1.2595390000      0.2135080000
O                 -0.0783530000      2.4998520000      0.3181190000
C                 -0.5635440000      0.1292160000      0.0917500000
C                 -1.9965960000      0.3441320000      0.1183290000
N                 -2.4915550000      1.6242980000      0.3850500000
H                 -4.7119200000      0.0008490000      0.8745230000
H                 -4.7137500000      0.2306950000     -0.8715470000
H                 -4.9303650000     -1.3887330000     -0.2073770000
H                 -3.0758520000     -2.8164730000     -0.5139350000
H                  3.9867570000     -1.5898230000      0.0385160000
H                  5.6032430000      0.3071040000      0.2318880000
H                  4.7185480000      2.6545670000      0.4240080000
H                  2.2542340000      3.0358610000      0.4042380000
H                 -1.7096140000      2.3114580000      0.3335360000
H                 -3.3419900000      1.8581550000     -0.1116310000
$end
$rem
MAX_SCF_CYCLES=200
BASIS  =  6-311++G(d,p)
GUI  =  2
JOB_TYPE  =  SP
METHOD  =  B3LYP
SOLVENT_METHOD = PCM
$end
$pcm
theory = CPCM
$end
$solvent
dielectric 37.219
opticaldielectric 1.43
$end

--------------------------------------------------------------

             Standard Nuclear Orientation (Angstroms)
    I     Atom           X                Y                Z
 ----------------------------------------------------------------
    1      C      -4.3777060000    -0.4541030000    -0.0669050000
    2      C      -2.8933770000    -0.7010510000    -0.0796060000
    3      C      -2.3864280000    -1.9992180000    -0.3302720000
    4      C      -1.0365490000    -2.2461390000    -0.3245450000
    5      Cl     -0.6230090000    -3.9602280000    -0.6918430000
    6      C      -0.0503350000    -1.2416320000    -0.0847340000
    7      C       1.3754960000    -1.5325540000    -0.0189960000
    8      O       1.8708890000    -2.7056130000    -0.0605480000
    9      C       2.2404820000    -0.3699210000     0.1022700000
   10      C       3.6432250000    -0.5633560000     0.1185540000
   11      C       4.5300060000     0.4892190000     0.2270630000
   12      C       4.0289680000     1.8166590000     0.3333930000
   13      C       2.6682560000     2.0364280000     0.3226010000
   14      C       1.7342500000     0.9708120000     0.2076580000
   15      C       0.3265890000     1.2595390000     0.2135080000
   16      O      -0.0783530000     2.4998520000     0.3181190000
   17      C      -0.5635440000     0.1292160000     0.0917500000
   18      C      -1.9965960000     0.3441320000     0.1183290000
   19      N      -2.4915550000     1.6242980000     0.3850500000
   20      H      -4.7119200000     0.0008490000     0.8745230000
   21      H      -4.7137500000     0.2306950000    -0.8715470000
   22      H      -4.9303650000    -1.3887330000    -0.2073770000
   23      H      -3.0758520000    -2.8164730000    -0.5139350000
   24      H       3.9867570000    -1.5898230000     0.0385160000
   25      H       5.6032430000     0.3071040000     0.2318880000
   26      H       4.7185480000     2.6545670000     0.4240080000
   27      H       2.2542340000     3.0358610000     0.4042380000
   28      H      -1.7096140000     2.3114580000     0.3335360000
   29      H      -3.3419900000     1.8581550000    -0.1116310000
 ----------------------------------------------------------------

    9   -1243.5160664439      3.63e-06  Convergence criterion met
 Total energy in the final basis set =    -1243.5160664439

                    Orbital Energies (a.u.)
 --------------------------------------------------------------

 Alpha MOs
 -- Occupied --
******** -19.0292 -19.0215 -14.2778 -10.2008 -10.1871 -10.1833 -10.1804
-10.1532 -10.1530 -10.1512 -10.1508 -10.1506 -10.1502 -10.1475 -10.1474
-10.1474 -10.1390 -10.1378  -9.4405  -7.2046  -7.1958  -7.1950  -0.9501
 -0.9467  -0.8856  -0.8485  -0.8277  -0.7928  -0.7643  -0.7259  -0.7243
 -0.6960  -0.6740  -0.6321  -0.6053  -0.5894  -0.5509  -0.5293  -0.5192
 -0.4901  -0.4787  -0.4498  -0.4418  -0.4299  -0.4186  -0.4141  -0.4065
 -0.3992  -0.3940  -0.3851  -0.3721  -0.3708  -0.3627  -0.3538  -0.3514
 -0.3452  -0.3360  -0.3225  -0.3175  -0.3084  -0.3050  -0.2929  -0.2733
 -0.2317  -0.2292  -0.2179  -0.2103  -0.1956  -0.1882  -0.1080

          Ground-State Mulliken Net Atomic Charges

     Atom                 Charge (a.u.)
  ----------------------------------------
      1 C                    -0.492885
      2 C                     0.109394
      3 C                    -0.733593
      4 C                     0.862323
      5 Cl                    0.290788
      6 C                     0.350383
      7 C                    -1.355052
      8 O                    -0.558066
      9 C                    -0.010605
     10 C                     0.082730
     11 C                    -0.490261
     12 C                    -0.582114
     13 C                     0.041389
     14 C                    -0.165713
     15 C                    -0.428411
     16 O                    -0.645663
     17 C                     0.212648
     18 C                     0.076108
     19 N                    -0.477355
     20 H                     0.165027
     21 H                     0.168846
     22 H                     0.164534
     23 H                     0.177820
     24 H                     0.143594
     25 H                     0.175268
     26 H                     0.174073
     27 H                     0.151836
     28 H                     0.333302
     29 H                     0.259656
  ----------------------------------------
  Sum of atomic charges =    -2.000000

                    Cartesian Multipole Moments
 -----------------------------------------------------------------
    Charge (ESU x 10^10)
                -9.6064
    Dipole Moment (Debye)
         X      -8.0286      Y       5.4177      Z      -1.5287
       Tot       9.8054
    Quadrupole Moments (Debye-Ang)
        XX    -148.1773     XY      10.0526     YY    -186.4328
        XZ       3.1800     YZ      -7.7873     ZZ    -132.5203

 Total job time:  195.65s(wall), 410.70s(cpu)
        *  Thank you very much for using Q-Chem.  Have a nice day.  *
