 Q-Chem 5.4, Q-Chem, Inc., Pleasanton, CA (2021)
 Q-Chem 5.4.0 for Intel X86 EM64T Linux

User input:
--------------------------------------------------------------
$molecule
-2 1
C                 -3.6299360000      0.1992280000      0.8407020000
C                 -3.6585520000     -0.1736490000     -0.4977660000
C                 -2.4414620000     -0.3646650000     -1.1931290000
C                 -1.1808610000     -0.1915480000     -0.5814160000
N                 -0.0298940000     -0.3860980000     -1.2887150000
C                  1.1512380000     -0.1996120000     -0.6286890000
C                  2.3836170000     -0.3815610000     -1.2916780000
C                  3.6300360000     -0.1992740000     -0.6470030000
C                  3.6584170000      0.1736740000      0.6915320000
C                  2.4414410000      0.3646680000      1.3868130000
C                  1.1808310000      0.1915210000      0.7750850000
N                  0.0298660000      0.3860930000      1.4824630000
C                 -1.1512450000      0.1996040000      0.8224340000
C                 -2.3836770000      0.3815510000      1.4855060000
H                 -4.5557910000      0.3516580000      1.3950280000
H                 -4.6070810000     -0.3196140000     -1.0141010000
H                 -2.4434900000     -0.6569870000     -2.2420920000
H                  2.3413530000     -0.6737240000     -2.3397650000
H                  4.5559330000     -0.3516240000     -1.2010990000
H                  4.6069370000      0.3196580000      1.2079950000
H                  2.4435360000      0.6570050000      2.4357870000
H                 -2.3412140000      0.6736960000      2.5335620000
$end
$rem
MAX_SCF_CYCLES=200
BASIS  =  6-311++G(d,p)
GUI  =  2
JOB_TYPE  =  SP
METHOD  =  B3LYP
SOLVENT_METHOD = COSMO
$end
$solvent
dielectric 37.219
opticaldielectric 1.43
$end

--------------------------------------------------------------

             Standard Nuclear Orientation (Angstroms)
    I     Atom           X                Y                Z
 ----------------------------------------------------------------
    1      C       3.6450398157    -0.6950004698     0.0000218239
    2      C       3.6450000930     0.6947306970    -0.0000256538
    3      C       2.4132969493     1.3905986783    -0.0000510038
    4      C       1.1660697952     0.7290084771     0.0000015970
    5      N       0.0002192282     1.4386838022     0.0000378633
    6      C      -1.1665221869     0.7286143550     0.0000091218
    7      C      -2.4128179202     1.3905545306    -0.0000305793
    8      C      -3.6451606222     0.6950502581     0.0000040000
    9      C      -3.6448843327    -0.6947596432     0.0000005657
   10      C      -2.4132969169    -1.3905450972     0.0000253442
   11      C      -1.1660611761    -0.7289322136    -0.0000024014
   12      N      -0.0002109177    -1.4386895686    -0.0000386564
   13      C       1.1665094302    -0.7286168601    -0.0000077856
   14      C       2.4128598407    -1.3906353437     0.0000560038
   15      H       4.5825541314    -1.2506861783    -0.0000153087
   16      H       4.5822658674     1.2507412574     0.0000200990
   17      H       2.3928713828     2.4793421864     0.0000480476
   18      H      -2.3929976779     2.4792413417     0.0000654072
   19      H      -4.5827119501     1.2504921196     0.0000258777
   20      H      -4.5821384276    -1.2508983938    -0.0000291596
   21      H      -2.3929380587    -2.4793046060    -0.0000850636
   22      H       2.3928399449    -2.4792915718    -0.0000305418
 ----------------------------------------------------------------

   11    -571.6814207496      2.73e-06  Convergence criterion met
 Total energy in the final basis set =     -571.6814207496
    6    -571.9577432879      3.30e-06  Convergence criterion met
 Total energy in the final basis set =     -571.9577432879

                    Orbital Energies (a.u.)
 --------------------------------------------------------------

 Alpha MOs
 -- Occupied --
-14.2341 -14.2341 -10.1654 -10.1654 -10.1650 -10.1650 -10.1346 -10.1346
-10.1340 -10.1340 -10.1245 -10.1245 -10.1244 -10.1244  -0.9047  -0.8348
 -0.8099  -0.7808  -0.7096  -0.7077  -0.6794  -0.6372  -0.5852  -0.5582
 -0.5508  -0.5165  -0.4962  -0.4474  -0.4408  -0.4305  -0.4157  -0.3907
 -0.3837  -0.3810  -0.3787  -0.3445  -0.3337  -0.3308  -0.3145  -0.3099
 -0.2927  -0.2825  -0.2512  -0.2222  -0.2185  -0.1974  -0.1756  -0.0942

          Ground-State Mulliken Net Atomic Charges

     Atom                 Charge (a.u.)
  ----------------------------------------
      1 C                    -0.371311
      2 C                    -0.368190
      3 C                    -0.331338
      4 C                     0.101678
      5 N                    -0.400673
      6 C                     0.103596
      7 C                    -0.330829
      8 C                    -0.371702
      9 C                    -0.367184
     10 C                    -0.331192
     11 C                     0.103422
     12 N                    -0.400744
     13 C                     0.104525
     14 C                    -0.328335
     15 H                     0.157531
     16 H                     0.157744
     17 H                     0.139338
     18 H                     0.139468
     19 H                     0.157619
     20 H                     0.157781
     21 H                     0.139266
     22 H                     0.139529
  ----------------------------------------
  Sum of atomic charges =    -2.000000

                    Cartesian Multipole Moments
 -----------------------------------------------------------------
    Charge (ESU x 10^10)
                -9.6064
    Dipole Moment (Debye)
         X      -0.0021      Y      -0.0012      Z      -0.0050
       Tot       0.0056
    Quadrupole Moments (Debye-Ang)
        XX    -129.0447     XY      -0.0168     YY    -110.4472
        XZ       0.0011     YZ       0.0008     ZZ     -97.6516

 Total job time:  37.80s(wall), 270.13s(cpu)
        *  Thank you very much for using Q-Chem.  Have a nice day.  *
