 Gaussian 16, Revision A.03,
 Gaussian 16:  ES64L-G16RevA.03 25-Dec-2016

 ----------------------------------------------------------------------
 #P UB3LYP/6-311++G(d,p) nosym opt freq SCRF=(PCM,Solvent=n,n-DiMethylF
 ormamide)
 ----------------------------------------------------------------------

 -------
 Radical
 -------
 Symbolic Z-matrix:
 Charge = -1 Multiplicity = 2

 SCF Done:  E(UB3LYP) =  -751.687101041     A.U. after   20 cycles
 SCF Done:  E(UB3LYP) =  -751.687742316     A.U. after   15 cycles
 SCF Done:  E(UB3LYP) =  -751.687938976     A.U. after   15 cycles
 SCF Done:  E(UB3LYP) =  -751.687985456     A.U. after   13 cycles
 SCF Done:  E(UB3LYP) =  -751.688032497     A.U. after   14 cycles
 SCF Done:  E(UB3LYP) =  -751.688076294     A.U. after   13 cycles
 SCF Done:  E(UB3LYP) =  -751.688121704     A.U. after   14 cycles
 SCF Done:  E(UB3LYP) =  -751.688146030     A.U. after   12 cycles
 SCF Done:  E(UB3LYP) =  -751.688169895     A.U. after   13 cycles
 SCF Done:  E(UB3LYP) =  -751.688176467     A.U. after   11 cycles
 SCF Done:  E(UB3LYP) =  -751.688178094     A.U. after   11 cycles
 SCF Done:  E(UB3LYP) =  -751.688179663     A.U. after   12 cycles
 SCF Done:  E(UB3LYP) =  -751.688180250     A.U. after   10 cycles
 SCF Done:  E(UB3LYP) =  -751.688180428     A.U. after   10 cycles
 SCF Done:  E(UB3LYP) =  -751.688180496     A.U. after   11 cycles
 SCF Done:  E(UB3LYP) =  -751.688180574     A.U. after   11 cycles
 SCF Done:  E(UB3LYP) =  -751.688180603     A.U. after   11 cycles
 SCF Done:  E(UB3LYP) =  -751.688180625     A.U. after    9 cycles
 SCF Done:  E(UB3LYP) =  -751.688180630     A.U. after    9 cycles
 Optimization completed.
    -- Stationary point found.
 Normal termination of Gaussian 16 at Sat Feb 10 14:17:04 2024.

 ----------------------------------------------------------------------
 #P Geom=AllCheck Guess=TCheck SCRF=Check GenChk UB3LYP/6-311++G(d,p) F
 req
 ----------------------------------------------------------------------

 Structure from the checkpoint file:  "106-rad.chk"
 -------
 Radical
 -------
 Charge = -1 Multiplicity = 2

                          Input orientation:
 ---------------------------------------------------------------------
 Center     Atomic      Atomic             Coordinates (Angstroms)
 Number     Number       Type             X           Y           Z
 ---------------------------------------------------------------------
      1          6           0       -0.782010   -1.722073    3.609921
      2          6           0        0.269529   -2.437106    2.913439
      3          6           0        0.372858   -2.297745    1.544332
      4          6           0       -0.510312   -1.476039    0.746613
      5          6           0       -1.551513   -0.777544    1.433759
      6          6           0       -1.703932   -0.881010    2.805692
      7          8           0       -0.965340   -1.767676    4.871535
      8          8           0       -0.352697   -1.389736   -0.520494
      9          7           0       -2.663979   -0.275533    3.570158
     10          6           0       -3.680871    0.730155    3.222367
     11          6           0       -4.391103    1.084510    4.540079
     12          6           0       -4.722395    0.152610    2.241768
     13          6           0       -3.037218    2.008311    2.645413
     14          1           0       -2.212378   -0.167727    0.832638
     15          1           0       -2.525541   -0.475866    4.554305
     16          1           0       -3.684598    1.501760    5.263800
     17          1           0       -4.856366    0.198286    4.981308
     18          1           0       -5.172137    1.826592    4.361779
     19          1           0       -5.194913   -0.734192    2.672325
     20          1           0       -4.277855   -0.130179    1.286958
     21          1           0       -5.500810    0.894357    2.042372
     22          1           0       -2.331739    2.434021    3.364073
     23          1           0       -3.807736    2.755773    2.436737
     24          1           0       -2.499215    1.812393    1.717084
     25          6           0        1.243759   -3.326961    3.711154
     26          6           0        0.460979   -4.441823    4.446012
     27          6           0        2.284864   -4.013363    2.805521
     28          6           0        2.018181   -2.470569    4.742038
     29          1           0        1.146644   -2.814083    0.990038
     30          1           0       -0.272388   -4.016733    5.130229
     31          1           0        1.151191   -5.072549    5.016916
     32          1           0       -0.061539   -5.082168    3.728000
     33          1           0        1.816483   -4.666910    2.064197
     34          1           0        2.944993   -4.630995    3.421620
     35          1           0        2.909481   -3.288802    2.275529
     36          1           0        1.334886   -1.984290    5.437226
     37          1           0        2.607900   -1.699575    4.235722
     38          1           0        2.709665   -3.101138    5.311587
 ---------------------------------------------------------------------

 SCF Done:  E(UB3LYP) =  -751.688180630     A.U. after    2 cycles

 Alpha  occ. eigenvalues --  -19.06985 -19.05922 -14.31032 -10.21817 -10.21165
 Alpha  occ. eigenvalues --  -10.20650 -10.20117 -10.17910 -10.16228 -10.15885
 Alpha  occ. eigenvalues --  -10.15443 -10.15412 -10.14846 -10.14576 -10.14392
 Alpha  occ. eigenvalues --  -10.14372 -10.13583  -0.99455  -0.97446  -0.92319
 Alpha  occ. eigenvalues --   -0.82485  -0.80364  -0.77331  -0.71543  -0.68792
 Alpha  occ. eigenvalues --   -0.68722  -0.67881  -0.67372  -0.66235  -0.60878
 Alpha  occ. eigenvalues --   -0.57477  -0.55480  -0.51802  -0.49283  -0.47773
 Alpha  occ. eigenvalues --   -0.45703  -0.45361  -0.44824  -0.44024  -0.43003
 Alpha  occ. eigenvalues --   -0.42577  -0.41491  -0.41232  -0.39578  -0.39273
 Alpha  occ. eigenvalues --   -0.38600  -0.38264  -0.37485  -0.36687  -0.36632
 Alpha  occ. eigenvalues --   -0.36236  -0.36192  -0.35501  -0.35391  -0.34327
 Alpha  occ. eigenvalues --   -0.32968  -0.32470  -0.32440  -0.31506  -0.29924
 Alpha  occ. eigenvalues --   -0.25879  -0.23577  -0.22607  -0.20034  -0.14599
 Alpha virt. eigenvalues --   -0.00622   0.00195   0.00920   0.01252   0.02023
 Alpha virt. eigenvalues --    0.02093   0.02362   0.02658   0.03455   0.03549
 Alpha virt. eigenvalues --    0.03727   0.04167   0.04210   0.04929   0.05116

  Beta  occ. eigenvalues --  -19.06321 -19.05385 -14.30912 -10.21823 -10.20883
  Beta  occ. eigenvalues --  -10.20531 -10.20013 -10.17914 -10.16177 -10.15884
  Beta  occ. eigenvalues --  -10.15437 -10.15406 -10.14846 -10.14388 -10.14368
  Beta  occ. eigenvalues --  -10.14336 -10.13620  -0.98333  -0.96490  -0.92001
  Beta  occ. eigenvalues --   -0.82180  -0.80243  -0.77030  -0.71370  -0.68769
  Beta  occ. eigenvalues --   -0.68705  -0.67732  -0.67356  -0.65340  -0.60623
  Beta  occ. eigenvalues --   -0.57162  -0.55298  -0.51665  -0.49024  -0.47676
  Beta  occ. eigenvalues --   -0.45417  -0.45190  -0.44723  -0.43917  -0.42908
  Beta  occ. eigenvalues --   -0.42518  -0.41421  -0.40328  -0.39096  -0.38913
  Beta  occ. eigenvalues --   -0.38496  -0.38142  -0.36924  -0.36627  -0.36538
  Beta  occ. eigenvalues --   -0.35923  -0.35629  -0.35395  -0.34513  -0.33164
  Beta  occ. eigenvalues --   -0.32941  -0.32346  -0.32306  -0.31441  -0.28595
  Beta  occ. eigenvalues --   -0.23379  -0.23006  -0.22095  -0.19234
  Beta virt. eigenvalues --   -0.07511  -0.00610   0.00196   0.01272   0.01378
  Beta virt. eigenvalues --    0.02076   0.02365   0.02501   0.02959   0.03467
  Beta virt. eigenvalues --    0.03735   0.03741   0.04201   0.04935   0.05204

 Mulliken charges and spin densities:
               1          2
     1  C   -0.643189   0.214015
     2  C    0.922680  -0.014253
     3  C   -0.314899   0.189815
     4  C   -0.586269   0.080957
     5  C    0.014423  -0.041604
     6  C   -0.218386   0.101462
     7  O   -0.457006   0.248994
     8  O   -0.560936   0.185360
     9  N    0.037695   0.058092
    10  C   -0.074820  -0.000274
    11  C   -0.515072   0.001619
    12  C   -0.418549  -0.001812
    13  C   -0.427426   0.001129
    14  H    0.186132  -0.001022
    15  H    0.325977  -0.003717
    16  H    0.152826   0.000043
    17  H    0.152402   0.000230
    18  H    0.157894  -0.000156
    19  H    0.156309   0.000875
    20  H    0.126715  -0.000612
    21  H    0.162352   0.000372
    22  H    0.158680   0.000610
    23  H    0.161102   0.000386
    24  H    0.133993  -0.000837
    25  C    0.682896  -0.021452
    26  C   -0.681864   0.007099
    27  C   -0.473321   0.001462
    28  C   -0.683428   0.007202
    29  H    0.180956  -0.012754
    30  H    0.176488  -0.000952
    31  H    0.144993   0.000213
    32  H    0.132917   0.000772
    33  H    0.131492  -0.000793
    34  H    0.170342   0.000222
    35  H    0.131157  -0.000777
    36  H    0.176508  -0.001000
    37  H    0.132509   0.000863
    38  H    0.145727   0.000225
 Sum of Mulliken charges =  -1.00000   1.00000

 Dipole moment (field-independent basis, Debye):
    X=              1.2542    Y=              8.9075    Z=             -7.4236  Tot=             11.6630
 Quadrupole moment (field-independent basis, Debye-Ang):
   XX=           -105.2100   YY=           -124.0583   ZZ=           -158.3491
   XY=             -9.1757   XZ=              2.0495   YZ=             19.8396

  Exact polarizability: 269.756 -50.995 240.469 -25.443  -3.619 346.193
 Approx polarizability: 271.896 -39.388 245.390 -34.170  -2.473 392.676

                      1                      2                      3
                      A                      A                      A
 Frequencies --      8.1752                48.1489                72.6951
 Red. masses --      3.4777                 3.1940                 3.6255
 Frc consts  --      0.0001                 0.0044                 0.0113
 IR Inten    --      5.9864                 2.4149                 0.5744

                      4                      5                      6
                      A                      A                      A
 Frequencies --     77.0147               106.9778               154.2971
 Red. masses --      4.2762                 3.8178                 4.7869
 Frc consts  --      0.0149                 0.0257                 0.0671
 IR Inten    --      2.5143                 4.6441                 7.8166

                      7                      8                      9
                      A                      A                      A
 Frequencies --    179.4735               180.8284               219.2972
 Red. masses --      3.4258                 1.3273                 2.1938
 Frc consts  --      0.0650                 0.0256                 0.0622
 IR Inten    --      1.5622                 0.5549                 0.1467

                     10                     11                     12
                      A                      A                      A
 Frequencies --    230.4741               231.1240               243.6201
 Red. masses --      1.2412                 1.1341                 1.8664
 Frc consts  --      0.0388                 0.0357                 0.0653
 IR Inten    --      0.6035                 0.2576                 0.8358

                     13                     14                     15
                      A                      A                      A
 Frequencies --    263.0931               274.2840               280.1909
 Red. masses --      1.6069                 1.0623                 2.4492
 Frc consts  --      0.0655                 0.0471                 0.1133
 IR Inten    --      1.2585                 0.2380                 4.2146

                     16                     17                     18
                      A                      A                      A
 Frequencies --    291.6180               293.0375               330.4396
 Red. masses --      3.0094                 2.4523                 1.0551
 Frc consts  --      0.1508                 0.1241                 0.0679
 IR Inten    --      0.2529                 2.9529                 0.2494

                     19                     20                     21
                      A                      A                      A
 Frequencies --    336.7392               346.2704               381.1912
 Red. masses --      3.2621                 2.6701                 2.5757
 Frc consts  --      0.2179                 0.1886                 0.2205
 IR Inten    --     16.7578                 3.8384                 0.2438

                     22                     23                     24
                      A                      A                      A
 Frequencies --    392.9416               410.3020               425.8812
 Red. masses --      2.5128                 2.7178                 3.3486
 Frc consts  --      0.2286                 0.2696                 0.3578
 IR Inten    --      2.6909                 2.6872                 0.6853

                     25                     26                     27
                      A                      A                      A
 Frequencies --    445.4077               449.3264               468.9748
 Red. masses --      5.5166                 2.6406                 3.4996
 Frc consts  --      0.6448                 0.3141                 0.4535
 IR Inten    --     40.8017                58.0217                 2.0354

                     28                     29                     30
                      A                      A                      A
 Frequencies --    480.9159               518.1875               536.8810
 Red. masses --      4.7693                 1.1871                 2.8327
 Frc consts  --      0.6499                 0.1878                 0.4811
 IR Inten    --      4.0237                84.6342                 7.0862

                     31                     32                     33
                      A                      A                      A
 Frequencies --    599.0535               625.2414               670.9089
 Red. masses --      3.9025                 5.3396                 2.7932
 Frc consts  --      0.8251                 1.2298                 0.7408
 IR Inten    --      3.6054                 5.6340                 0.9966

                     34                     35                     36
                      A                      A                      A
 Frequencies --    685.5641               758.6045               778.4715
 Red. masses --      4.6515                 3.9323                 7.6017
 Frc consts  --      1.2881                 1.3333                 2.7142
 IR Inten    --      2.7882                10.4929                 6.6178

                     37                     38                     39
                      A                      A                      A
 Frequencies --    795.5436               813.0085               813.6158
 Red. masses --      3.3978                 4.5343                 1.5260
 Frc consts  --      1.2670                 1.7658                 0.5952
 IR Inten    --      1.4031                51.2059                32.7655

                     40                     41                     42
                      A                      A                      A
 Frequencies --    853.3943               896.9014               913.0476
 Red. masses --      1.7275                 2.7234                 1.7607
 Frc consts  --      0.7412                 1.2908                 0.8648
 IR Inten    --     59.4357                11.2685                 0.4996

                     43                     44                     45
                      A                      A                      A
 Frequencies --    923.8619               926.0962               929.4994
 Red. masses --      1.7429                 1.7852                 1.7557
 Frc consts  --      0.8765                 0.9021                 0.8937
 IR Inten    --      3.8787                 0.8467                 3.2917

                     46                     47                     48
                      A                      A                      A
 Frequencies --    955.0560               961.3933               969.3731
 Red. masses --      1.1994                 1.2015                 2.5933
 Frc consts  --      0.6445                 0.6543                 1.4358
 IR Inten    --      0.2486                 0.1792                21.6374

                     49                     50                     51
                      A                      A                      A
 Frequencies --   1016.1585              1043.7430              1044.4183
 Red. masses --      2.2191                 1.3781                 1.3907
 Frc consts  --      1.3500                 0.8845                 0.8938
 IR Inten    --     60.6114                 0.0429                 2.1688

                     52                     53                     54
                      A                      A                      A
 Frequencies --   1049.3996              1057.8043              1170.7142
 Red. masses --      1.4884                 1.4790                 2.3812
 Frc consts  --      0.9657                 0.9750                 1.9228
 IR Inten    --      6.5398                 2.8172                14.4601

                     55                     56                     57
                      A                      A                      A
 Frequencies --   1212.9547              1213.8131              1220.2614
 Red. masses --      2.4916                 2.7456                 2.7087
 Frc consts  --      2.1598                 2.3833                 2.3764
 IR Inten    --     34.2938                 8.9106                62.8228

                     58                     59                     60
                      A                      A                      A
 Frequencies --   1232.0214              1236.5699              1252.7711
 Red. masses --      2.7485                 2.7710                 2.9815
 Frc consts  --      2.4580                 2.4964                 2.7570
 IR Inten    --     26.8848                70.3935               405.4686

                     61                     62                     63
                      A                      A                      A
 Frequencies --   1261.8326              1278.6802              1317.2711
 Red. masses --      2.1827                 2.1738                 2.4512
 Frc consts  --      2.0476                 2.0941                 2.5060
 IR Inten    --     53.8822                45.9819               160.8751

                     64                     65                     66
                      A                      A                      A
 Frequencies --   1373.4691              1380.5610              1392.5774
 Red. masses --      1.2130                 1.3102                 1.2341
 Frc consts  --      1.3481                 1.4712                 1.4101
 IR Inten    --     13.0091                 8.2719                14.6992

                     67                     68                     69
                      A                      A                      A
 Frequencies --   1393.6898              1402.7448              1408.7541
 Red. masses --      1.2608                 4.2049                 1.2798
 Frc consts  --      1.4428                 4.8749                 1.4965
 IR Inten    --      4.5158                98.0985                56.7175

                     70                     71                     72
                      A                      A                      A
 Frequencies --   1419.6436              1464.0070              1469.9576
 Red. masses --      1.2597                 3.9374                 1.0477
 Frc consts  --      1.4958                 4.9721                 1.3339
 IR Inten    --     42.5679                51.5866                 0.0533

                     73                     74                     75
                      A                      A                      A
 Frequencies --   1471.8333              1473.8844              1480.2405
 Red. masses --      1.0539                 2.2004                 1.0446
 Frc consts  --      1.3452                 2.8163                 1.3486
 IR Inten    --     11.2128              1037.2717                 0.3281

                     76                     77                     78
                      A                      A                      A
 Frequencies --   1480.9635              1488.0278              1488.4552
 Red. masses --      1.0536                 1.0468                 1.0497
 Frc consts  --      1.3615                 1.3656                 1.3702
 IR Inten    --      5.8453                 1.6181                 0.9683

                     79                     80                     81
                      A                      A                      A
 Frequencies --   1491.8257              1493.5331              1495.0221
 Red. masses --      1.1669                 1.2049                 1.2787
 Frc consts  --      1.5301                 1.5836                 1.6838
 IR Inten    --     53.2667               233.6131               327.1198

                     82                     83                     84
                      A                      A                      A
 Frequencies --   1501.2243              1508.3582              1516.1210
 Red. masses --      1.0537                 1.1000                 1.0846
 Frc consts  --      1.3991                 1.4745                 1.4689
 IR Inten    --     13.2593                10.6835                31.2972

                     85                     86                     87
                      A                      A                      A
 Frequencies --   1529.6024              1538.3438              1617.1179
 Red. masses --      5.1231                 1.7123                 6.3826
 Frc consts  --      7.0622                 2.3874                 9.8341
 IR Inten    --    152.5208               331.7072               323.1332

                     88                     89                     90
                      A                      A                      A
 Frequencies --   3008.3629              3011.3133              3020.4124
 Red. masses --      1.0384                 1.0375                 1.0364
 Frc consts  --      5.5372                 5.5432                 5.5705
 IR Inten    --     82.1657                55.3134                83.9833

                     91                     92                     93
                      A                      A                      A
 Frequencies --   3021.7637              3027.3817              3034.5240
 Red. masses --      1.0354                 1.0366                 1.0376
 Frc consts  --      5.5704                 5.5973                 5.6294
 IR Inten    --     37.6610                54.3823                32.3801

                     94                     95                     96
                      A                      A                      A
 Frequencies --   3063.3887              3065.1887              3079.3394
 Red. masses --      1.1015                 1.1008                 1.1011
 Frc consts  --      6.0903                 6.0933                 6.1516
 IR Inten    --     35.9783                71.1905               112.5602

                     97                     98                     99
                      A                      A                      A
 Frequencies --   3083.7877              3084.4417              3089.3653
 Red. masses --      1.1020                 1.1028                 1.1023
 Frc consts  --      6.1746                 6.1817                 6.1986
 IR Inten    --     66.6090                21.7659                57.7697

                    100                    101                    102
                      A                      A                      A
 Frequencies --   3091.2140              3103.3716              3112.7553
 Red. masses --      1.1022                 1.1010                 1.0994
 Frc consts  --      6.2051                 6.2476                 6.2764
 IR Inten    --     44.1780                77.8386                13.2056

                    103                    104                    105
                      A                      A                      A
 Frequencies --   3114.9234              3120.1951              3122.1641
 Red. masses --      1.0991                 1.0979                 1.0973
 Frc consts  --      6.2834                 6.2975                 6.3022
 IR Inten    --     66.8379                 0.6310                34.1986

                    106                    107                    108
                      A                      A                      A
 Frequencies --   3181.5418              3194.3124              3529.1016
 Red. masses --      1.0882                 1.0884                 1.0753
 Frc consts  --      6.4896                 6.5434                 7.8905
 IR Inten    --     25.5056                34.1683               107.7610

 - Thermochemistry -
 -------------------
 Temperature   298.150 Kelvin.  Pressure   1.00000 Atm.
 Atom     1 has atomic number  6 and mass  12.00000

 Molecular mass:   235.15723 amu.
 Principal axes and moments of inertia in atomic units:
                           1         2         3
     Eigenvalues --  2328.351056378.089127901.21771
           X            0.77348  -0.11166   0.62391
           Y           -0.63202  -0.06169   0.77249
           Z            0.04777   0.99183   0.11829
 This molecule is an asymmetric top.
 Rotational symmetry number  1.
 Warning -- assumption of classical behavior for rotation
           may cause significant error
 Rotational temperatures (Kelvin)      0.03720     0.01358     0.01096
 Rotational constants (GHZ):           0.77512     0.28296     0.22841
 Zero-point vibrational energy     846918.2 (Joules/Mol)
                                  202.41830 (Kcal/Mol)
 Warning -- explicit consideration of  31 degrees of freedom as
           vibrations may cause significant error
 Vibrational temperatures:     11.76    69.28   104.59   110.81   153.92
          (Kelvin)            222.00   258.22   260.17   315.52   331.60
                              332.54   350.51   378.53   394.63   403.13
                              419.57   421.62   475.43   484.49   498.21
                              548.45   565.36   590.33   612.75   640.84
                              646.48   674.75   691.93   745.56   772.45
                              861.90   899.58   965.29   986.37  1091.46
                             1120.05  1144.61  1169.74  1170.61  1227.84
                             1290.44  1313.67  1329.23  1332.45  1337.34
                             1374.11  1383.23  1394.71  1462.03  1501.71
                             1502.68  1509.85  1521.94  1684.40  1745.17
                             1746.41  1755.68  1772.60  1779.15  1802.46
                             1815.50  1839.74  1895.26  1976.12  1986.32
                             2003.61  2005.21  2018.24  2026.88  2042.55
                             2106.38  2114.94  2117.64  2120.59  2129.74
                             2130.78  2140.94  2141.56  2146.40  2148.86
                             2151.00  2159.93  2170.19  2181.36  2200.76
                             2213.33  2326.67  4328.36  4332.61  4345.70
                             4347.64  4355.73  4366.00  4407.53  4410.12
                             4430.48  4436.88  4437.82  4444.91  4447.57
                             4465.06  4478.56  4481.68  4489.26  4492.10
                             4577.53  4595.90  5077.59

 Zero-point correction=                           0.322574 (Hartree/Particle)
 Thermal correction to Energy=                    0.341183
 Thermal correction to Enthalpy=                  0.342128
 Thermal correction to Gibbs Free Energy=         0.275408
 Sum of electronic and zero-point Energies=           -751.365607
 Sum of electronic and thermal Energies=              -751.346997
 Sum of electronic and thermal Enthalpies=            -751.346053
 Sum of electronic and thermal Free Energies=         -751.412772

                     E (Thermal)             CV                S
                      KCal/Mol        Cal/Mol-Kelvin    Cal/Mol-Kelvin
 Total                  214.096             72.341            140.423
 Electronic               0.000              0.000              1.377
 Translational            0.889              2.981             42.267
 Rotational               0.889              2.981             33.128
 Vibrational            212.318             66.380             63.651
 Vibration     1          0.593              1.987              8.411
 Vibration     2          0.595              1.978              4.892
 Vibration     3          0.599              1.967              4.079
 Vibration     4          0.599              1.964              3.966
 Vibration     5          0.606              1.944              3.323
 Vibration     6          0.620              1.898              2.619
 Vibration     7          0.629              1.868              2.334
 Vibration     8          0.630              1.866              2.320
 Vibration     9          0.647              1.812              1.965
 Vibration    10          0.652              1.794              1.875
 Vibration    11          0.653              1.793              1.870
 Vibration    12          0.659              1.773              1.776
 Vibration    13          0.670              1.740              1.641
 Vibration    14          0.677              1.721              1.569
 Vibration    15          0.680              1.710              1.533
 Vibration    16          0.687              1.689              1.465
 Vibration    17          0.688              1.687              1.456
 Vibration    18          0.713              1.615              1.258
 Vibration    19          0.717              1.602              1.228
 Vibration    20          0.724              1.583              1.183
 Vibration    21          0.751              1.510              1.034
 Vibration    22          0.760              1.485              0.989
 Vibration    23          0.774              1.448              0.926
 Vibration    24          0.788              1.414              0.872
 Vibration    25          0.805              1.371              0.810
 Vibration    26          0.808              1.362              0.798
 Vibration    27          0.826              1.319              0.740
 Vibration    28          0.837              1.292              0.708
 Vibration    29          0.873              1.210              0.614
 Vibration    30          0.892              1.168              0.572
 Vibration    31          0.957              1.034              0.451

 Optimization completed.
    -- Stationary point found.
 Normal termination of Gaussian 16 at Sat Feb 10 16:32:52 2024.
