 Q-Chem 5.4, Q-Chem, Inc., Pleasanton, CA (2021)
 Q-Chem 5.4.0 for Intel X86 EM64T Linux

User input:
--------------------------------------------------------------
$molecule
-2 1
O                  3.9116230000     -2.4958930000     -0.0727990000
C                  3.0296160000     -1.5686840000     -0.0005820000
C                  3.3801750000     -0.1861050000      0.2274200000
C                  4.7422300000      0.1749230000      0.3847780000
C                  5.1331770000      1.4799860000      0.5996810000
C                  4.1468420000      2.5031570000      0.6658040000
C                  2.8142620000      2.1799630000      0.5158250000
C                  2.3785040000      0.8468810000      0.2961630000
C                  0.9556670000      0.5953070000      0.1496780000
O                  0.1226400000      1.5745560000      0.2059820000
C                  0.5771300000     -0.7907870000     -0.0639070000
C                 -0.7953180000     -1.2359500000     -0.2112680000
C                 -1.0880510000     -2.5686560000     -0.4394920000
C                 -0.0750990000     -3.5547690000     -0.5340080000
C                  1.2363080000     -3.1737850000     -0.3822260000
C                  1.6071650000     -1.8282560000     -0.1459100000
N                 -1.9663180000     -0.3904290000     -0.1230480000
C                 -2.2626270000      0.1867660000      1.1901000000
C                 -3.7766910000      0.4788310000      1.2954390000
C                 -4.3562990000      0.9411190000     -0.0632810000
C                 -3.2525130000      1.5674520000     -0.9206850000
C                 -2.1604810000      0.5344310000     -1.2510900000
H                  5.4657250000     -0.6323100000      0.3264410000
H                  6.1866740000      1.7275090000      0.7171210000
H                  4.4439760000      3.5367690000      0.8342830000
H                  2.0391840000      2.9379530000      0.5596720000
H                 -2.1364980000     -2.8359060000     -0.5322310000
H                 -0.3392210000     -4.5944810000     -0.7166640000
H                  2.0517260000     -3.8876590000     -0.4352640000
H                 -1.6651580000      1.0908760000      1.3691690000
H                 -1.9707040000     -0.5472380000      1.9458840000
H                 -3.9345310000      1.2568700000      2.0548790000
H                 -4.3167850000     -0.4132770000      1.6373240000
H                 -5.1935850000      1.6359220000      0.0849790000
H                 -4.7648380000      0.0757360000     -0.5986670000
H                 -3.6624000000      1.9785470000     -1.8515770000
H                 -2.7976180000      2.4037310000     -0.3788180000
H                 -1.2332030000      1.0637370000     -1.4989060000
H                 -2.4746870000     -0.0668370000     -2.1189970000
$end

$rem
BASIS  =  6-311++G(d,p)
GUI  =  2
JOB_TYPE  =  SP
METHOD  =  B3LYP
SCF_CONVERGENCE  = 8
SOLVENT_METHOD = sm12
$end

$smx
solvent dimethylformamide
charges CM5
$end

--------------------------------------------------------------

             Standard Nuclear Orientation (Angstroms)
    I     Atom           X                Y                Z
 ----------------------------------------------------------------
    1      O       3.9116230000    -2.4958930000    -0.0727990000
    2      C       3.0296160000    -1.5686840000    -0.0005820000
    3      C       3.3801750000    -0.1861050000     0.2274200000
    4      C       4.7422300000     0.1749230000     0.3847780000
    5      C       5.1331770000     1.4799860000     0.5996810000
    6      C       4.1468420000     2.5031570000     0.6658040000
    7      C       2.8142620000     2.1799630000     0.5158250000
    8      C       2.3785040000     0.8468810000     0.2961630000
    9      C       0.9556670000     0.5953070000     0.1496780000
   10      O       0.1226400000     1.5745560000     0.2059820000
   11      C       0.5771300000    -0.7907870000    -0.0639070000
   12      C      -0.7953180000    -1.2359500000    -0.2112680000
   13      C      -1.0880510000    -2.5686560000    -0.4394920000
   14      C      -0.0750990000    -3.5547690000    -0.5340080000
   15      C       1.2363080000    -3.1737850000    -0.3822260000
   16      C       1.6071650000    -1.8282560000    -0.1459100000
   17      N      -1.9663180000    -0.3904290000    -0.1230480000
   18      C      -2.2626270000     0.1867660000     1.1901000000
   19      C      -3.7766910000     0.4788310000     1.2954390000
   20      C      -4.3562990000     0.9411190000    -0.0632810000
   21      C      -3.2525130000     1.5674520000    -0.9206850000
   22      C      -2.1604810000     0.5344310000    -1.2510900000
   23      H       5.4657250000    -0.6323100000     0.3264410000
   24      H       6.1866740000     1.7275090000     0.7171210000
   25      H       4.4439760000     3.5367690000     0.8342830000
   26      H       2.0391840000     2.9379530000     0.5596720000
   27      H      -2.1364980000    -2.8359060000    -0.5322310000
   28      H      -0.3392210000    -4.5944810000    -0.7166640000
   29      H       2.0517260000    -3.8876590000    -0.4352640000
   30      H      -1.6651580000     1.0908760000     1.3691690000
   31      H      -1.9707040000    -0.5472380000     1.9458840000
   32      H      -3.9345310000     1.2568700000     2.0548790000
   33      H      -4.3167850000    -0.4132770000     1.6373240000
   34      H      -5.1935850000     1.6359220000     0.0849790000
   35      H      -4.7648380000     0.0757360000    -0.5986670000
   36      H      -3.6624000000     1.9785470000    -1.8515770000
   37      H      -2.7976180000     2.4037310000    -0.3788180000
   38      H      -1.2332030000     1.0637370000    -1.4989060000
   39      H      -2.4746870000    -0.0668370000    -2.1189970000
 ----------------------------------------------------------------

   17    -939.6680045222      9.85e-09  Convergence criterion met
 Total energy in the final basis set =     -939.9464798504

                    Orbital Energies (a.u.)
 --------------------------------------------------------------

 Alpha MOs
 -- Occupied --
-19.0281 -19.0234 -14.2964 -10.1990 -10.1892 -10.1867 -10.1847 -10.1820
-10.1729 -10.1721 -10.1697 -10.1681 -10.1681 -10.1677 -10.1676 -10.1667
-10.1629 -10.1626 -10.1596 -10.1528 -10.1525 -10.1522  -0.9490  -0.9460
 -0.9183  -0.8438  -0.8363  -0.7934  -0.7683  -0.7479  -0.7417  -0.7284
 -0.7232  -0.6534  -0.6411  -0.6264  -0.6205  -0.6068  -0.5745  -0.5491
 -0.5285  -0.5227  -0.5152  -0.4864  -0.4785  -0.4595  -0.4550  -0.4501
 -0.4457  -0.4378  -0.4191  -0.4104  -0.4087  -0.4027  -0.3930  -0.3925
 -0.3802  -0.3787  -0.3770  -0.3650  -0.3614  -0.3533  -0.3463  -0.3338
 -0.3313  -0.3301  -0.3204  -0.3192  -0.3147  -0.3085  -0.2510  -0.2382
 -0.2359  -0.2332  -0.2108  -0.2033  -0.1976  -0.1165

          Ground-State Mulliken Net Atomic Charges

     Atom                 Charge (a.u.)
  ----------------------------------------
      1 O                    -0.334435
      2 C                    -2.277328
      3 C                    -1.739367
      4 C                    -0.012699
      5 C                     1.366331
      6 C                     1.586113
      7 C                     0.098234
      8 C                    -1.660921
      9 C                    -1.468619
     10 O                    -0.097367
     11 C                    -0.942822
     12 C                    -2.432588
     13 C                     0.544045
     14 C                     1.461826
     15 C                    -0.147242
     16 C                    -2.027436
     17 N                     1.191265
     18 C                    -0.449054
     19 C                     0.837304
     20 C                     0.823041
     21 C                     0.649913
     22 C                    -0.103681
     23 H                     0.124312
     24 H                     0.393098
     25 H                     0.397930
     26 H                     0.113062
     27 H                     0.158265
     28 H                     0.419008
     29 H                     0.111340
     30 H                     0.037939
     31 H                    -0.007378
     32 H                     0.234433
     33 H                     0.211803
     34 H                     0.393989
     35 H                     0.075509
     36 H                     0.357533
     37 H                     0.088923
     38 H                    -0.082584
     39 H                     0.108305
  ----------------------------------------
  Sum of atomic charges =    -2.000000

                    Cartesian Multipole Moments
 -----------------------------------------------------------------
    Charge (ESU x 10^10)
                -9.6064
    Dipole Moment (Debye)
         X     -17.4658      Y       5.7519      Z      -0.4267
       Tot      18.3935
    Quadrupole Moments (Debye-Ang)
        XX    -227.5751     XY      17.9086     YY    -185.2756
        XZ      -2.8588     YZ      -4.3751     ZZ    -147.3277

 Total job time:  1903.42s(wall), 14469.78s(cpu)
        *  Thank you very much for using Q-Chem.  Have a nice day.  *
