 Q-Chem 5.4, Q-Chem, Inc., Pleasanton, CA (2021)
 Q-Chem 5.4.0 for Intel X86 EM64T Linux

User input:
--------------------------------------------------------------
$molecule
-1 2
C                 -0.2250620000      3.8272890000     -0.1473050000
C                 -1.4414170000      3.1853320000     -0.2877360000
C                 -1.4822180000      1.8067060000     -0.5790380000
C                  0.9877030000      3.1190810000     -0.2917770000
C                  0.9485270000      1.7258850000     -0.5865530000
C                 -0.3011570000      1.0970130000     -0.7244780000
C                  2.2608170000      3.7919320000     -0.1443340000
C                  3.4462990000      2.9830640000     -0.3107090000
C                  3.4445970000      1.6324190000     -0.5885410000
C                  2.1870020000      0.9348090000     -0.7497980000
O                  2.4108690000      5.0305660000      0.1184320000
O                  2.1388850000     -0.2948190000     -1.0151780000
H                 -0.1679450000      4.8865610000      0.0767810000
H                 -2.3667190000      3.7428490000     -0.1738790000
H                 -2.4380810000      1.3031710000     -0.6891670000
H                 -0.3026360000      0.0364020000     -0.9493110000
O                  4.6077220000      3.6845000000     -0.1607970000
C                  4.7272820000      0.8580840000     -0.7490460000
C                  5.1913930000      0.7468730000     -2.2142790000
C                  6.4768200000     -0.0714890000     -2.3777560000
C                  6.9504220000     -0.1924270000     -3.8308980000
C                  8.2344810000     -1.0129740000     -3.9984980000
H                  4.2737260000      4.5881930000      0.0341200000
H                  4.5664180000     -0.1528110000     -0.3607260000
H                  5.5178790000      1.3320420000     -0.1581670000
H                  5.3449060000      1.7547680000     -2.6183440000
H                  4.3868130000      0.2874820000     -2.7983210000
H                  6.3173600000     -1.0769230000     -1.9657390000
H                  7.2757550000      0.3821330000     -1.7750210000
H                  7.1081430000      0.8128110000     -4.2438150000
H                  6.1514360000     -0.6449390000     -4.4326470000
H                  8.0774060000     -2.0186010000     -3.5858370000
H                  9.0344400000     -0.5609750000     -3.3965900000
C                  8.7076170000     -1.1349790000     -5.4516000000
C                  9.9909650000     -1.9570250000     -5.6082950000
H                  8.8653740000     -0.1308540000     -5.8644970000
H                  7.9094430000     -1.5872160000     -6.0531410000
H                 10.8171930000     -1.5100970000     -5.0454040000
H                 10.3012050000     -2.0252450000     -6.6557440000
H                  9.8539560000     -2.9773880000     -5.2351440000
$end

$rem
BASIS  =  6-311++G(d,p)
GUI  =  2
JOB_TYPE  =  SP
METHOD  =  B3LYP
SCF_CONVERGENCE  = 8
SOLVENT_METHOD = sm12
$end

$smx
solvent dimethylformamide
charges CM5
$end

--------------------------------------------------------------

             Standard Nuclear Orientation (Angstroms)
    I     Atom           X                Y                Z
 ----------------------------------------------------------------
    1      C      -0.2250620000     3.8272890000    -0.1473050000
    2      C      -1.4414170000     3.1853320000    -0.2877360000
    3      C      -1.4822180000     1.8067060000    -0.5790380000
    4      C       0.9877030000     3.1190810000    -0.2917770000
    5      C       0.9485270000     1.7258850000    -0.5865530000
    6      C      -0.3011570000     1.0970130000    -0.7244780000
    7      C       2.2608170000     3.7919320000    -0.1443340000
    8      C       3.4462990000     2.9830640000    -0.3107090000
    9      C       3.4445970000     1.6324190000    -0.5885410000
   10      C       2.1870020000     0.9348090000    -0.7497980000
   11      O       2.4108690000     5.0305660000     0.1184320000
   12      O       2.1388850000    -0.2948190000    -1.0151780000
   13      H      -0.1679450000     4.8865610000     0.0767810000
   14      H      -2.3667190000     3.7428490000    -0.1738790000
   15      H      -2.4380810000     1.3031710000    -0.6891670000
   16      H      -0.3026360000     0.0364020000    -0.9493110000
   17      O       4.6077220000     3.6845000000    -0.1607970000
   18      C       4.7272820000     0.8580840000    -0.7490460000
   19      C       5.1913930000     0.7468730000    -2.2142790000
   20      C       6.4768200000    -0.0714890000    -2.3777560000
   21      C       6.9504220000    -0.1924270000    -3.8308980000
   22      C       8.2344810000    -1.0129740000    -3.9984980000
   23      H       4.2737260000     4.5881930000     0.0341200000
   24      H       4.5664180000    -0.1528110000    -0.3607260000
   25      H       5.5178790000     1.3320420000    -0.1581670000
   26      H       5.3449060000     1.7547680000    -2.6183440000
   27      H       4.3868130000     0.2874820000    -2.7983210000
   28      H       6.3173600000    -1.0769230000    -1.9657390000
   29      H       7.2757550000     0.3821330000    -1.7750210000
   30      H       7.1081430000     0.8128110000    -4.2438150000
   31      H       6.1514360000    -0.6449390000    -4.4326470000
   32      H       8.0774060000    -2.0186010000    -3.5858370000
   33      H       9.0344400000    -0.5609750000    -3.3965900000
   34      C       8.7076170000    -1.1349790000    -5.4516000000
   35      C       9.9909650000    -1.9570250000    -5.6082950000
   36      H       8.8653740000    -0.1308540000    -5.8644970000
   37      H       7.9094430000    -1.5872160000    -6.0531410000
   38      H      10.8171930000    -1.5100970000    -5.0454040000
   39      H      10.3012050000    -2.0252450000    -6.6557440000
   40      H       9.8539560000    -2.9773880000    -5.2351440000
 ----------------------------------------------------------------

   18    -885.8664853117      6.24e-09  Convergence criterion met
 Total energy in the final basis set =     -885.9543902609

                    Orbital Energies (a.u.)
 --------------------------------------------------------------

 Alpha MOs
 -- Occupied --
-19.1446 -19.0863 -19.0735 -10.2244 -10.2241 -10.2219 -10.1821 -10.1808
-10.1807 -10.1792 -10.1785 -10.1778 -10.1656 -10.1654 -10.1650 -10.1642
-10.1640 -10.1638 -10.1632 -10.1584  -1.0642  -0.9986  -0.9957  -0.8643
 -0.8196  -0.8069  -0.7830  -0.7580  -0.7554  -0.7240  -0.6871  -0.6646
 -0.6309  -0.6187  -0.5942  -0.5795  -0.5783  -0.5727  -0.5417  -0.5082
 -0.4894  -0.4824  -0.4676  -0.4599  -0.4527  -0.4412  -0.4344  -0.4304
 -0.4261  -0.4165  -0.4138  -0.4043  -0.3986  -0.3896  -0.3840  -0.3816
 -0.3729  -0.3689  -0.3620  -0.3518  -0.3456  -0.3434  -0.3400  -0.3384
 -0.3276  -0.3266  -0.3242  -0.3129  -0.2711  -0.2642  -0.2590  -0.2384
 -0.2312  -0.1524

 Beta MOs
 -- Occupied --
-19.1442 -19.0796 -19.0679 -10.2233 -10.2232 -10.2193 -10.1820 -10.1804
-10.1798 -10.1787 -10.1783 -10.1770 -10.1656 -10.1651 -10.1646 -10.1642
-10.1640 -10.1638 -10.1632 -10.1584  -1.0621  -0.9889  -0.9844  -0.8620
 -0.8180  -0.8052  -0.7815  -0.7559  -0.7543  -0.7231  -0.6832  -0.6592
 -0.6299  -0.6170  -0.5925  -0.5792  -0.5778  -0.5705  -0.5401  -0.5061
 -0.4881  -0.4809  -0.4663  -0.4590  -0.4522  -0.4371  -0.4337  -0.4254
 -0.4232  -0.4154  -0.4090  -0.4015  -0.3955  -0.3827  -0.3804  -0.3784
 -0.3720  -0.3679  -0.3518  -0.3488  -0.3421  -0.3404  -0.3365  -0.3295
 -0.3275  -0.3253  -0.3237  -0.3119  -0.2570  -0.2530  -0.2508  -0.2331
 -0.2211

          Ground-State Mulliken Net Atomic Charges

     Atom                 Charge (a.u.)    Spin (a.u.)
  --------------------------------------------------------
      1 C                     0.167959       0.073613
      2 C                     0.861473       0.001600
      3 C                     0.842730       0.075371
      4 C                    -0.607501       0.006089
      5 C                    -1.186028       0.072277
      6 C                    -0.166237      -0.000316
      7 C                    -1.537784       0.136869
      8 C                    -0.604632       0.059962
      9 C                     1.223315       0.055471
     10 C                    -2.007415       0.049033
     11 O                    -0.374236       0.248460
     12 O                    -0.290765       0.210494
     13 H                     0.169790      -0.004016
     14 H                     0.357364      -0.000688
     15 H                     0.341680      -0.005333
     16 H                     0.139821      -0.000277
     17 O                    -0.141369       0.015800
     18 C                    -0.464726       0.011257
     19 C                    -1.657417      -0.001219
     20 C                    -0.093427       0.001464
     21 C                     0.546664      -0.004377
     22 C                     0.998799      -0.000497
     23 H                     0.297221      -0.003994
     24 H                     0.133859       0.002823
     25 H                     0.191940      -0.000951
     26 H                     0.082048       0.002638
     27 H                     0.067346      -0.001911
     28 H                     0.159400       0.000717
     29 H                     0.163837      -0.000410
     30 H                     0.127030      -0.000030
     31 H                     0.119063      -0.000007
     32 H                     0.096324      -0.000009
     33 H                     0.098365      -0.000004
     34 C                     0.329865      -0.000030
     35 C                    -0.120034       0.000121
     36 H                     0.115427      -0.000001
     37 H                     0.114386      -0.000004
     38 H                     0.142199      -0.000017
     39 H                     0.222209       0.000024
     40 H                     0.141457       0.000008
  --------------------------------------------------------
  Sum of atomic charges =    -1.000000

                    Cartesian Multipole Moments
 -----------------------------------------------------------------
    Charge (ESU x 10^10)
                -4.8032
    Dipole Moment (Debye)
         X     -11.3595      Y     -10.6925      Z       2.3256
       Tot      15.7726
    Quadrupole Moments (Debye-Ang)
        XX    -162.6984     XY     -24.6899     YY    -177.8913
        XZ       6.4311     YZ      -0.5047     ZZ    -131.8165

 Total job time:  1912.29s(wall), 14158.86s(cpu)
        *  Thank you very much for using Q-Chem.  Have a nice day.  *
