 Q-Chem 5.4, Q-Chem, Inc., Pleasanton, CA (2021)
 Q-Chem 5.4.0 for Intel X86 EM64T Linux

User input:
--------------------------------------------------------------
$molecule
-2 1
C                 -0.6845450000      2.7235260000      0.6576560000
C                 -1.6778600000      2.5763950000     -0.2953660000
C                 -1.4485110000      1.8027710000     -1.4508990000
C                  0.5824870000      2.1060560000      0.5018900000
C                  0.8131140000      1.3222270000     -0.6701490000
C                 -0.2083230000      1.1901180000     -1.6174180000
C                  1.6066630000      2.2700450000      1.5055900000
C                  2.8246200000      1.6268240000      1.2703590000
C                  3.1556760000      0.8170500000      0.1240360000
C                  2.1179200000      0.6356750000     -0.9172950000
O                  1.4499290000      2.9756190000      2.5978640000
O                  2.2715510000     -0.0358110000     -1.9516110000
O                  3.7472990000      1.8297580000      2.2680480000
H                 -0.8364220000      3.3135490000      1.5552060000
H                 -2.6421600000      3.0614880000     -0.1511070000
H                 -2.2272430000      1.6859110000     -2.2006490000
H                  0.0080640000      0.5862250000     -2.4930260000
H                  3.2106860000      2.4039010000      2.8668340000
N                  4.3981850000      0.2980060000      0.1166570000
N                  4.8132800000     -0.4529090000     -0.8726550000
C                  6.1133170000     -0.8890590000     -0.6968840000
C                  6.9585220000     -0.5926010000      0.4119420000
C                  6.6604830000     -1.7109180000     -1.7170290000
C                  7.9564210000     -2.2033000000     -1.6404220000
C                  8.7779330000     -1.9036190000     -0.5429600000
C                  8.2516310000     -1.0920470000      0.4744500000
H                  6.5523950000      0.0334890000      1.1966200000
H                  6.0211400000     -1.9398920000     -2.5638470000
H                  8.3373200000     -2.8302080000     -2.4446330000
H                  9.7920610000     -2.2884230000     -0.4820800000
H                  8.8719690000     -0.8469160000      1.3355240000
$end
$rem
MAX_SCF_CYCLES=200
BASIS  =  6-311++G(d,p)
GUI  =  2
JOB_TYPE  =  SP
METHOD  =  B3LYP
SOLVENT_METHOD = COSMO
$end
$solvent
dielectric 37.219
opticaldielectric 1.43
$end

--------------------------------------------------------------

             Standard Nuclear Orientation (Angstroms)
    I     Atom           X                Y                Z
 ----------------------------------------------------------------
    1      C       4.5167260115    -0.4482778785    -0.0011278394
    2      C       5.2774816706     0.7083655168    -0.0009376276
    3      C       4.6537075756     1.9721916267     0.0000691794
    4      C       3.0995761319    -0.3974064085    -0.0003221258
    5      C       2.4690534560     0.8846592189     0.0006848500
    6      C       3.2619979840     2.0376309569     0.0008803459
    7      C       2.3220136242    -1.6133994540    -0.0004672520
    8      C       0.9321228592    -1.4695605688    -0.0000568024
    9      C       0.2019460093    -0.2260856267     0.0004558598
   10      C       0.9815029019     1.0334757483     0.0013785737
   11      O       2.8465481256    -2.8135353526    -0.0007656421
   12      O       0.4786794014     2.1699054588     0.0026278335
   13      O       0.2622012378    -2.6691883809    -0.0005257590
   14      H       4.9729185776    -1.4324920272    -0.0019141161
   15      H       6.3644330527     0.6410112657    -0.0016198699
   16      H       5.2492773791     2.8818626882     0.0002064462
   17      H       2.7433964732     2.9911776643     0.0016605311
   18      H       1.0358909141    -3.2836330845    -0.0011266474
   19      N      -1.1399430736    -0.3384394057     0.0002188077
   20      N      -1.9089409538     0.7215403071    -0.0006168409
   21      C      -3.2535205563     0.4000996567    -0.0003540372
   22      C      -3.8053227425    -0.9141536357     0.0022085618
   23      C      -4.1741556404     1.4808235624    -0.0027098545
   24      C      -5.5464994468     1.2700240552    -0.0026050089
   25      C      -6.0764278590    -0.0293154240    -0.0000939885
   26      C      -5.1791922947    -1.1090045776     0.0022909891
   27      H      -3.1130645702    -1.7468737878     0.0039870435
   28      H      -3.7593749169     2.4839399429    -0.0046510119
   29      H      -6.2178401367     2.1268501821    -0.0045252818
   30      H      -7.1500603031    -0.1952957090     0.0000203258
   31      H      -5.5688765040    -2.1261078557     0.0042944134
 ----------------------------------------------------------------

   12    -951.1315106091      6.41e-06  Convergence criterion met
 Total energy in the final basis set =     -951.1315106091
    6    -951.3914176014      3.91e-06  Convergence criterion met
 Total energy in the final basis set =     -951.3914176014

                    Orbital Energies (a.u.)
 --------------------------------------------------------------

 Alpha MOs
 -- Occupied --
-19.1181 -19.0689 -19.0399 -14.3184 -14.3019 -10.2249 -10.1878 -10.1868
-10.1788 -10.1755 -10.1666 -10.1664 -10.1652 -10.1635 -10.1614 -10.1614
-10.1591 -10.1587 -10.1586 -10.1565 -10.1562  -1.0346  -1.0021  -0.9756
 -0.9419  -0.8480  -0.8428  -0.8006  -0.7608  -0.7376  -0.7361  -0.7163
 -0.6741  -0.6439  -0.6065  -0.5948  -0.5840  -0.5626  -0.5462  -0.5181
 -0.5081  -0.4833  -0.4645  -0.4611  -0.4487  -0.4355  -0.4286  -0.4191
 -0.4184  -0.4133  -0.4084  -0.4001  -0.3882  -0.3779  -0.3701  -0.3680
 -0.3606  -0.3554  -0.3388  -0.3346  -0.3343  -0.3228  -0.3216  -0.3093
 -0.2635  -0.2502  -0.2499  -0.2462  -0.2402  -0.2279  -0.1957  -0.1873
 -0.1327

          Ground-State Mulliken Net Atomic Charges

     Atom                 Charge (a.u.)
  ----------------------------------------
      1 C                    -0.011438
      2 C                    -0.288349
      3 C                    -0.462132
      4 C                     0.454930
      5 C                     0.518429
      6 C                     0.232663
      7 C                    -0.637937
      8 C                    -0.031270
      9 C                     0.218597
     10 C                    -0.982193
     11 O                    -0.745648
     12 O                    -0.450842
     13 O                    -0.359526
     14 H                     0.169783
     15 H                     0.195518
     16 H                     0.188405
     17 H                     0.164885
     18 H                     0.319633
     19 N                    -0.164165
     20 N                    -0.093452
     21 C                    -0.152502
     22 C                    -0.003256
     23 C                    -0.126891
     24 C                    -0.158469
     25 C                    -0.450878
     26 C                    -0.317705
     27 H                     0.195232
     28 H                     0.178035
     29 H                     0.208792
     30 H                     0.178304
     31 H                     0.213436
  ----------------------------------------
  Sum of atomic charges =    -2.000011

                    Cartesian Multipole Moments
 -----------------------------------------------------------------
    Charge (ESU x 10^10)
                -9.6065
    Dipole Moment (Debye)
         X      -5.2122      Y       4.4976      Z      -0.0021
       Tot       6.8845
    Quadrupole Moments (Debye-Ang)
        XX    -177.0396     XY      23.1871     YY    -167.7494
        XZ      -0.0042     YZ      -0.0330     ZZ    -134.0949

 Total job time:  112.83s(wall), 798.97s(cpu)
        *  Thank you very much for using Q-Chem.  Have a nice day.  *
