 Gaussian 16, Revision A.03,
 Gaussian 16:  ES64L-G16RevA.03 25-Dec-2016

 --------------------------------------
 #P UB3LYP/6-311++G(d,p) nosym opt freq
 --------------------------------------

 -------
 Reduced
 -------
 Symbolic Z-matrix:
 Charge = -2 Multiplicity = 1

 SCF Done:  E(UB3LYP) =  -951.131555651     A.U. after   22 cycles
 Optimization completed.
    -- Stationary point found.
 Normal termination of Gaussian 16 at Mon Jan  8 21:31:16 2024.

 ----------------------------------------------------------------------
 #P Geom=AllCheck Guess=TCheck SCRF=Check GenChk UB3LYP/6-311++G(d,p) F
 req
 ----------------------------------------------------------------------

 Structure from the checkpoint file:  "301-an.chk"
 -------
 Reduced
 -------
 Charge = -2 Multiplicity = 1

                          Input orientation:
 ---------------------------------------------------------------------
 Center     Atomic      Atomic             Coordinates (Angstroms)
 Number     Number       Type             X           Y           Z
 ---------------------------------------------------------------------
      1          6           0       -0.684545    2.723526    0.657656
      2          6           0       -1.677860    2.576395   -0.295366
      3          6           0       -1.448511    1.802771   -1.450899
      4          6           0        0.582487    2.106056    0.501890
      5          6           0        0.813114    1.322227   -0.670149
      6          6           0       -0.208323    1.190118   -1.617418
      7          6           0        1.606663    2.270045    1.505590
      8          6           0        2.824620    1.626824    1.270359
      9          6           0        3.155676    0.817050    0.124036
     10          6           0        2.117920    0.635675   -0.917295
     11          8           0        1.449929    2.975619    2.597864
     12          8           0        2.271551   -0.035811   -1.951611
     13          8           0        3.747299    1.829758    2.268048
     14          1           0       -0.836422    3.313549    1.555206
     15          1           0       -2.642160    3.061488   -0.151107
     16          1           0       -2.227243    1.685911   -2.200649
     17          1           0        0.008064    0.586225   -2.493026
     18          1           0        3.210686    2.403901    2.866834
     19          7           0        4.398185    0.298006    0.116657
     20          7           0        4.813280   -0.452909   -0.872655
     21          6           0        6.113317   -0.889059   -0.696884
     22          6           0        6.958522   -0.592601    0.411942
     23          6           0        6.660483   -1.710918   -1.717029
     24          6           0        7.956421   -2.203300   -1.640422
     25          6           0        8.777933   -1.903619   -0.542960
     26          6           0        8.251631   -1.092047    0.474450
     27          1           0        6.552395    0.033489    1.196620
     28          1           0        6.021140   -1.939892   -2.563847
     29          1           0        8.337320   -2.830208   -2.444633
     30          1           0        9.792061   -2.288423   -0.482080
     31          1           0        8.871969   -0.846916    1.335524
 ---------------------------------------------------------------------

 SCF Done:  E(UB3LYP) =  -951.131555651     A.U. after    2 cycles

 Alpha  occ. eigenvalues --  -18.88072 -18.83716 -18.79893 -14.08213 -14.06789
 Alpha  occ. eigenvalues --   -9.99517  -9.97350  -9.97149  -9.96961  -9.96391
 Alpha  occ. eigenvalues --   -9.95989  -9.95547  -9.95363  -9.95193  -9.94841
 Alpha  occ. eigenvalues --   -9.94708  -9.94626  -9.94454  -9.94247  -9.94078
 Alpha  occ. eigenvalues --   -9.93793  -0.79639  -0.76732  -0.74151  -0.70059
 Alpha  occ. eigenvalues --   -0.63940  -0.62700  -0.57763  -0.54335  -0.53416
 Alpha  occ. eigenvalues --   -0.52200  -0.50194  -0.45299  -0.42158  -0.39534
 Alpha  occ. eigenvalues --   -0.38481  -0.36998  -0.34757  -0.32776  -0.30175
 Alpha  occ. eigenvalues --   -0.29354  -0.27200  -0.24502  -0.24045  -0.23600
 Alpha  occ. eigenvalues --   -0.22502  -0.21382  -0.21058  -0.20412  -0.19917
 Alpha  occ. eigenvalues --   -0.18480  -0.16708  -0.16610  -0.16267  -0.15336
 Alpha  occ. eigenvalues --   -0.14020  -0.13876  -0.13175  -0.12798  -0.11232
 Alpha  occ. eigenvalues --   -0.11152  -0.09890  -0.09482  -0.07425  -0.04801
 Alpha  occ. eigenvalues --   -0.04214  -0.02811  -0.01430  -0.01298   0.01428
 Alpha  occ. eigenvalues --    0.03135   0.04932   0.10172
 Alpha virt. eigenvalues --    0.13833   0.14893   0.15558   0.15879   0.16768
 Alpha virt. eigenvalues --    0.17106   0.19169   0.19520   0.19729   0.20115
 Alpha virt. eigenvalues --    0.20891   0.21170   0.22018   0.22891   0.23241

  Beta  occ. eigenvalues --  -18.88072 -18.83716 -18.79893 -14.08213 -14.06789
  Beta  occ. eigenvalues --   -9.99517  -9.97350  -9.97149  -9.96961  -9.96391
  Beta  occ. eigenvalues --   -9.95989  -9.95547  -9.95363  -9.95193  -9.94841
  Beta  occ. eigenvalues --   -9.94708  -9.94626  -9.94454  -9.94247  -9.94078
  Beta  occ. eigenvalues --   -9.93793  -0.79639  -0.76732  -0.74151  -0.70059
  Beta  occ. eigenvalues --   -0.63940  -0.62700  -0.57763  -0.54335  -0.53416
  Beta  occ. eigenvalues --   -0.52200  -0.50194  -0.45299  -0.42158  -0.39534
  Beta  occ. eigenvalues --   -0.38481  -0.36998  -0.34757  -0.32776  -0.30175
  Beta  occ. eigenvalues --   -0.29354  -0.27200  -0.24502  -0.24045  -0.23600
  Beta  occ. eigenvalues --   -0.22502  -0.21382  -0.21058  -0.20412  -0.19917
  Beta  occ. eigenvalues --   -0.18480  -0.16708  -0.16610  -0.16267  -0.15336
  Beta  occ. eigenvalues --   -0.14020  -0.13876  -0.13175  -0.12798  -0.11232
  Beta  occ. eigenvalues --   -0.11152  -0.09890  -0.09482  -0.07425  -0.04801
  Beta  occ. eigenvalues --   -0.04214  -0.02811  -0.01430  -0.01298   0.01428
  Beta  occ. eigenvalues --    0.03135   0.04932   0.10172
  Beta virt. eigenvalues --    0.13833   0.14893   0.15558   0.15879   0.16768
  Beta virt. eigenvalues --    0.17106   0.19169   0.19520   0.19729   0.20115
  Beta virt. eigenvalues --    0.20891   0.21170   0.22018   0.22891   0.23241

 Mulliken charges and spin densities:
               1          2
     1  C   -0.092891   0.000000
     2  C   -0.183084  -0.000000
     3  C   -0.403240  -0.000000
     4  C    0.768925  -0.000000
     5  C    0.673820   0.000000
     6  C    0.232208   0.000000
     7  C   -1.030656   0.000000
     8  C    0.029516   0.000000
     9  C    0.336317  -0.000000
    10  C   -1.288995  -0.000000
    11  O   -0.587100  -0.000000
    12  O   -0.304943  -0.000000
    13  O   -0.299544  -0.000000
    14  H    0.134797   0.000000
    15  H    0.089268  -0.000000
    16  H    0.082583  -0.000000
    17  H    0.121498   0.000000
    18  H    0.275394   0.000000
    19  N   -0.209738   0.000000
    20  N    0.187365  -0.000000
    21  C   -0.281740   0.000000
    22  C   -0.132050  -0.000000
    23  C    0.086457  -0.000000
    24  C   -0.121059   0.000000
    25  C   -0.385885  -0.000000
    26  C   -0.311523   0.000000
    27  H    0.193772   0.000000
    28  H    0.126835   0.000000
    29  H    0.106248   0.000000
    30  H    0.069762  -0.000000
    31  H    0.117683   0.000000
 Sum of Mulliken charges =  -2.00000   0.00000

 Dipole moment (field-independent basis, Debye):
    X=            -30.1521    Y=             -8.1700    Z=             -1.6170  Tot=             31.2811
 Quadrupole moment (field-independent basis, Debye-Ang):
   XX=           -309.3336   YY=           -170.2005   ZZ=           -163.7453
   XY=             13.0999   XZ=              4.6921   YZ=            -22.1284

  Exact polarizability: 662.212-212.884 255.581   9.771  55.582 236.574
 Approx polarizability:1193.380-391.000 431.196  30.503 106.465 410.071

                      1                      2                      3
                      A                      A                      A
 Frequencies --     22.0177                29.2600                57.4821
 Red. masses --      4.9212                 5.8318                 6.1510
 Frc consts  --      0.0014                 0.0029                 0.0120
 IR Inten    --      1.2018                 0.3182                 1.5857

                      4                      5                      6
                      A                      A                      A
 Frequencies --     77.3629               102.0236               132.9946
 Red. masses --      7.9177                 5.7379                 5.8188
 Frc consts  --      0.0279                 0.0352                 0.0606
 IR Inten    --      1.3916                 0.5140                 0.3969

                      7                      8                      9
                      A                      A                      A
 Frequencies --    163.7076               175.1702               226.8907
 Red. masses --      7.1456                 6.4499                 6.8046
 Frc consts  --      0.1128                 0.1166                 0.2064
 IR Inten    --      1.6035                 0.2279                 1.0541

                     10                     11                     12
                      A                      A                      A
 Frequencies --    237.6475               258.6582               267.2521
 Red. masses --      6.2395                 8.2381                 6.2686
 Frc consts  --      0.2076                 0.3247                 0.2638
 IR Inten    --     11.0787                 0.0064                 7.0752

                     13                     14                     15
                      A                      A                      A
 Frequencies --    335.7556               341.2040               373.3213
 Red. masses --      6.4016                 6.7955                10.0244
 Frc consts  --      0.4252                 0.4661                 0.8231
 IR Inten    --      0.6745                 9.0218                 3.1601

                     16                     17                     18
                      A                      A                      A
 Frequencies --    393.6820               418.9389               423.7908
 Red. masses --      6.5740                 3.3354                 9.6231
 Frc consts  --      0.6003                 0.3449                 1.0183
 IR Inten    --      0.9911                 0.0151                67.0623

                     19                     20                     21
                      A                      A                      A
 Frequencies --    441.1316               450.1774               469.2472
 Red. masses --      3.8936                10.8548                 8.1456
 Frc consts  --      0.4464                 1.2961                 1.0568
 IR Inten    --      6.8482                47.9893                 1.6562

                     22                     23                     24
                      A                      A                      A
 Frequencies --    477.7595               516.9835               523.6152
 Red. masses --      4.2148                 9.3127                 3.8589
 Frc consts  --      0.5668                 1.4665                 0.6234
 IR Inten    --      5.5982                23.9635                 3.2554

                     25                     26                     27
                      A                      A                      A
 Frequencies --    596.8834               626.2951               659.1910
 Red. masses --      8.0484                 6.4617                 6.9743
 Frc consts  --      1.6894                 1.4933                 1.7856
 IR Inten    --     10.1495                 4.7754                 0.7943

                     28                     29                     30
                      A                      A                      A
 Frequencies --    664.5349               680.0175               684.9896
 Red. masses --      6.3319                 1.4954                 3.8133
 Frc consts  --      1.6475                 0.4074                 1.0542
 IR Inten    --     13.6186                48.8260                 3.4245

                     31                     32                     33
                      A                      A                      A
 Frequencies --    697.8964               700.3828               709.1926
 Red. masses --      1.9186                 7.4172                 1.7240
 Frc consts  --      0.5506                 2.1437                 0.5109
 IR Inten    --     76.9517                16.0090                28.4325

                     34                     35                     36
                      A                      A                      A
 Frequencies --    735.4584               753.4447               765.8077
 Red. masses --      6.8240                 1.2683                 4.0019
 Frc consts  --      2.1747                 0.4242                 1.3828
 IR Inten    --      0.3651                46.1472                 5.7864

                     37                     38                     39
                      A                      A                      A
 Frequencies --    810.6063               813.1398               839.7620
 Red. masses --      1.2839                 1.3351                 1.5851
 Frc consts  --      0.4971                 0.5201                 0.6586
 IR Inten    --      1.1260                 1.6479                19.7958

                     40                     41                     42
                      A                      A                      A
 Frequencies --    851.3759               920.6694               925.3294
 Red. masses --      6.4940                 1.2315                 6.7878
 Frc consts  --      2.7734                 0.6150                 3.4243
 IR Inten    --     16.5967                 2.9290                29.6506

                     43                     44                     45
                      A                      A                      A
 Frequencies --    937.5392               947.2170               947.6916
 Red. masses --      1.2033                 1.2895                 1.3185
 Frc consts  --      0.6232                 0.6816                 0.6977
 IR Inten    --      0.1800                 0.0100                 5.5534

                     46                     47                     48
                      A                      A                      A
 Frequencies --    983.4094               994.5122              1020.4797
 Red. masses --      5.6953                 7.8290                 2.1760
 Frc consts  --      3.2452                 4.5622                 1.3351
 IR Inten    --    657.5432                 6.3175                49.5185

                     49                     50                     51
                      A                      A                      A
 Frequencies --   1034.8251              1055.8385              1077.3173
 Red. masses --      2.0000                 6.6625                 1.5261
 Frc consts  --      1.2618                 4.3761                 1.0436
 IR Inten    --     37.6377               134.9815                18.6955

                     52                     53                     54
                      A                      A                      A
 Frequencies --   1089.2767              1130.1232              1151.8122
 Red. masses --      2.3802                 1.5805                 1.2625
 Frc consts  --      1.6639                 1.1893                 0.9868
 IR Inten    --     46.7673               523.5919               335.2899

                     55                     56                     57
                      A                      A                      A
 Frequencies --   1154.2730              1176.8151              1182.1311
 Red. masses --      1.0999                 1.9303                 2.9383
 Frc consts  --      0.8634                 1.5750                 2.4192
 IR Inten    --     83.1683               163.4776                25.8141

                     58                     59                     60
                      A                      A                      A
 Frequencies --   1238.1400              1253.7279              1277.3119
 Red. masses --      3.3731                 2.5861                 2.9201
 Frc consts  --      3.0467                 2.3949                 2.8070
 IR Inten    --    685.5794               327.0378              1036.8102

                     61                     62                     63
                      A                      A                      A
 Frequencies --   1313.0019              1342.7622              1349.8512
 Red. masses --      2.4735                 2.5475                 4.9662
 Frc consts  --      2.5124                 2.7063                 5.3315
 IR Inten    --    243.9438                78.0786                 5.5588

                     64                     65                     66
                      A                      A                      A
 Frequencies --   1353.3575              1375.4349              1408.1492
 Red. masses --      3.9565                 5.3041                 5.0305
 Frc consts  --      4.2695                 5.9121                 5.8770
 IR Inten    --    150.5643               308.4042               239.2681

                     67                     68                     69
                      A                      A                      A
 Frequencies --   1436.4969              1461.2152              1471.6076
 Red. masses --      4.0084                 2.6341                 2.6230
 Frc consts  --      4.8734                 3.3137                 3.3468
 IR Inten    --    301.1229                56.3348                 4.7699

                     70                     71                     72
                      A                      A                      A
 Frequencies --   1488.3375              1495.4955              1542.7671
 Red. masses --      2.7707                 2.6095                 3.1799
 Frc consts  --      3.6161                 3.4386                 4.4592
 IR Inten    --    508.2162                24.0098               177.4126

                     73                     74                     75
                      A                      A                      A
 Frequencies --   1562.3266              1582.8698              1585.7103
 Red. masses --      5.1949                 4.1688                 7.2268
 Frc consts  --      7.4708                 6.1540                10.7064
 IR Inten    --     74.1502               148.6297               178.6111

                     76                     77                     78
                      A                      A                      A
 Frequencies --   1610.0822              1638.0000              3098.6440
 Red. masses --      5.6986                 8.2431                 1.0839
 Frc consts  --      8.7038                13.0307                 6.1318
 IR Inten    --    698.6597               171.7359                65.5437

                     79                     80                     81
                      A                      A                      A
 Frequencies --   3098.9912              3108.2195              3127.1187
 Red. masses --      1.0838                 1.0871                 1.0902
 Frc consts  --      6.1327                 6.1877                 6.2814
 IR Inten    --     60.1893                72.1949               117.9551

                     82                     83                     84
                      A                      A                      A
 Frequencies --   3142.1950              3161.5323              3162.1080
 Red. masses --      1.0930                 1.0918                 1.0907
 Frc consts  --      6.3584                 6.4297                 6.4256
 IR Inten    --    124.8489                37.5782                41.6802

                     85                     86                     87
                      A                      A                      A
 Frequencies --   3169.9690              3193.0401              3383.3928
 Red. masses --      1.0910                 1.0905                 1.0637
 Frc consts  --      6.4590                 6.5509                 7.1743
 IR Inten    --     45.6625                 4.4265                44.4252

 - Thermochemistry -
 -------------------
 Temperature   298.150 Kelvin.  Pressure   1.00000 Atm.
 Atom     1 has atomic number  6 and mass  12.00000

 Molecular mass:   278.06914 amu.
 Principal axes and moments of inertia in atomic units:
                           1         2         3
     Eigenvalues --  2260.73069********************
           X            0.90249   0.26861   0.33670
           Y           -0.42266   0.40185   0.81233
           Z           -0.08290   0.87542  -0.47619
 This molecule is an asymmetric top.
 Rotational symmetry number  1.
 Warning -- assumption of classical behavior for rotation
           may cause significant error
 Rotational temperatures (Kelvin)      0.03831     0.00727     0.00611
 Rotational constants (GHZ):           0.79830     0.15141     0.12727
 Zero-point vibrational energy     578192.1 (Joules/Mol)
                                  138.19123 (Kcal/Mol)
 Warning -- explicit consideration of  25 degrees of freedom as
           vibrations may cause significant error
 Vibrational temperatures:     31.68    42.10    82.70   111.31   146.79
          (Kelvin)            191.35   235.54   252.03   326.45   341.92
                              372.15   384.52   483.08   490.92   537.13
                              566.42   602.76   609.74   634.69   647.70
                              675.14   687.39   743.82   753.37   858.78
                              901.10   948.43   956.12   978.39   985.55
                             1004.12  1007.69  1020.37  1058.16  1084.04
                             1101.83  1166.28  1169.93  1208.23  1224.94
                             1324.64  1331.34  1348.91  1362.83  1363.52
                             1414.91  1430.88  1468.24  1488.88  1519.12
                             1550.02  1567.23  1626.00  1657.20  1660.74
                             1693.17  1700.82  1781.41  1803.83  1837.77
                             1889.12  1931.94  1942.13  1947.18  1978.94
                             2026.01  2066.80  2102.36  2117.32  2141.39
                             2151.68  2219.70  2247.84  2277.40  2281.48
                             2316.55  2356.72  4458.26  4458.76  4472.03
                             4499.23  4520.92  4548.74  4549.57  4560.88
                             4594.07  4867.95

 Zero-point correction=                           0.220222 (Hartree/Particle)
 Thermal correction to Energy=                    0.236841
 Thermal correction to Enthalpy=                  0.237785
 Thermal correction to Gibbs Free Energy=         0.174566
 Sum of electronic and zero-point Energies=           -950.911334
 Sum of electronic and thermal Energies=              -950.894715
 Sum of electronic and thermal Enthalpies=            -950.893770
 Sum of electronic and thermal Free Energies=         -950.956990

                     E (Thermal)             CV                S
                      KCal/Mol        Cal/Mol-Kelvin    Cal/Mol-Kelvin
 Total                  148.620             65.849            133.057
 Electronic               0.000              0.000              0.000
 Translational            0.889              2.981             42.766
 Rotational               0.889              2.981             34.301
 Vibrational            146.843             59.887             55.989
 Vibration     1          0.593              1.985              6.443
 Vibration     2          0.593              1.984              5.879
 Vibration     3          0.596              1.975              4.542
 Vibration     4          0.599              1.964              3.957
 Vibration     5          0.604              1.948              3.415
 Vibration     6          0.613              1.920              2.902
 Vibration     7          0.623              1.887              2.507
 Vibration     8          0.627              1.873              2.379
 Vibration     9          0.651              1.800              1.903
 Vibration    10          0.656              1.783              1.820
 Vibration    11          0.667              1.748              1.671
 Vibration    12          0.672              1.733              1.614
 Vibration    13          0.717              1.604              1.232
 Vibration    14          0.721              1.593              1.207
 Vibration    15          0.745              1.527              1.066
 Vibration    16          0.761              1.484              0.986
 Vibration    17          0.782              1.429              0.896
 Vibration    18          0.786              1.418              0.879
 Vibration    19          0.801              1.380              0.823
 Vibration    20          0.809              1.360              0.795
 Vibration    21          0.826              1.318              0.740
 Vibration    22          0.834              1.299              0.716
 Vibration    23          0.872              1.212              0.617
 Vibration    24          0.879              1.198              0.602
 Vibration    25          0.955              1.038              0.455

 Optimization completed.
    -- Stationary point found.
 Normal termination of Gaussian 16 at Mon Jan  8 22:43:23 2024.
