 Q-Chem 5.4, Q-Chem, Inc., Pleasanton, CA (2021)
 Q-Chem 5.4.0 for Intel X86 EM64T Linux

User input:
--------------------------------------------------------------
$molecule
-2 1
C                 -3.5084840000      0.6739710000     -0.1517610000
O                 -2.7467730000     -0.4883190000     -0.3509250000
C                 -1.3899240000     -0.4334310000     -0.0366270000
C                 -0.7236300000      0.7633600000      0.1945860000
C                  0.6790850000      0.8637870000      0.4970510000
O                  1.2620630000      1.9912480000      0.7414090000
C                  1.3467690000     -0.4097220000      0.5110390000
C                  0.6812880000     -1.6089880000      0.2777790000
C                 -0.7198650000     -1.7219470000      0.0011970000
O                 -1.3146980000     -2.8395910000     -0.2091170000
O                  2.7088960000     -0.4883130000      0.8439530000
C                  3.5585520000      0.2553880000     -0.0168240000
H                 -4.5559720000      0.4190250000     -0.3417120000
H                 -3.2215140000      1.4857130000     -0.8352800000
H                 -3.4206400000      1.0562670000      0.8796960000
H                 -1.2546080000      1.7092010000      0.1810210000
H                  1.2503780000     -2.5346510000      0.3171100000
H                  3.5271860000     -0.1516110000     -1.0424210000
H                  3.2615010000      1.3081160000     -0.0291670000
H                  4.5803910000      0.1504960000      0.3707860000
$end

$rem
Scf_algorithm DIIS
MAX_SCF_CYCLES=200
BASIS  =  6-311++G(d,p)
GUI  =  2
THRESH = 14
JOB_TYPE  =  SP
METHOD  =  B3LYP
SCF_CONVERGENCE  = 6
$end

--------------------------------------------------------------

   22    -610.6426262237      4.61e-07  Convergence criterion met
 Total energy in the final basis set =     -610.6426262237
 Total job time:  43.58s(wall), 339.94s(cpu)
        *  Thank you very much for using Q-Chem.  Have a nice day.  *
 Q-Chem 5.4, Q-Chem, Inc., Pleasanton, CA (2021)
 Q-Chem 5.4.0 for Intel X86 EM64T Linux

User input:
--------------------------------------------------------------

$molecule
read
$end

$rem
SCF_guess=read
MAX_SCF_CYCLES=200
BASIS  =  6-311++G(d,p)
GUI  =  2
JOB_TYPE  =  SP
METHOD  =  B3LYP
THRESH = 14
SCF_CONVERGENCE  = 6
SOLVENT_METHOD = sm12
$end

$smx
solvent dimethylformamide
charges MK
$end

--------------------------------------------------------------

             Standard Nuclear Orientation (Angstroms)
    I     Atom           X                Y                Z
 ----------------------------------------------------------------
    1      C      -3.5084840000     0.6739710000    -0.1517610000
    2      O      -2.7467730000    -0.4883190000    -0.3509250000
    3      C      -1.3899240000    -0.4334310000    -0.0366270000
    4      C      -0.7236300000     0.7633600000     0.1945860000
    5      C       0.6790850000     0.8637870000     0.4970510000
    6      O       1.2620630000     1.9912480000     0.7414090000
    7      C       1.3467690000    -0.4097220000     0.5110390000
    8      C       0.6812880000    -1.6089880000     0.2777790000
    9      C      -0.7198650000    -1.7219470000     0.0011970000
   10      O      -1.3146980000    -2.8395910000    -0.2091170000
   11      O       2.7088960000    -0.4883130000     0.8439530000
   12      C       3.5585520000     0.2553880000    -0.0168240000
   13      H      -4.5559720000     0.4190250000    -0.3417120000
   14      H      -3.2215140000     1.4857130000    -0.8352800000
   15      H      -3.4206400000     1.0562670000     0.8796960000
   16      H      -1.2546080000     1.7092010000     0.1810210000
   17      H       1.2503780000    -2.5346510000     0.3171100000
   18      H       3.5271860000    -0.1516110000    -1.0424210000
   19      H       3.2615010000     1.3081160000    -0.0291670000
   20      H       4.5803910000     0.1504960000     0.3707860000
 ----------------------------------------------------------------

   17    -610.6300038653      8.65e-07  Convergence criterion met
 Total energy in the final basis set =     -610.9149903573

                    Orbital Energies (a.u.)
 --------------------------------------------------------------

 Alpha MOs
 -- Occupied --
-19.1224 -19.1129 -19.0057 -19.0036 -10.2118 -10.2003 -10.1786 -10.1656
-10.1651 -10.1644 -10.1231 -10.1181  -1.0337  -1.0195  -0.9195  -0.9172
 -0.7746  -0.7183  -0.6882  -0.6633  -0.6200  -0.5608  -0.5378  -0.4819
 -0.4670  -0.4562  -0.4481  -0.4367  -0.4241  -0.4078  -0.3817  -0.3639
 -0.3551  -0.3460  -0.3362  -0.3257  -0.3085  -0.3043  -0.2857  -0.2614
 -0.2101  -0.1936  -0.1842  -0.1819  -0.1028

          Ground-State Mulliken Net Atomic Charges

     Atom                 Charge (a.u.)
  ----------------------------------------
      1 C                     0.379528
      2 O                    -0.094245
      3 C                     0.487536
      4 C                     0.774375
      5 C                    -1.408542
      6 O                    -0.502693
      7 C                     0.095547
      8 C                    -0.362857
      9 C                    -1.847778
     10 O                    -0.574412
     11 O                    -0.089964
     12 C                     0.208899
     13 H                     0.377626
     14 H                     0.177329
     15 H                     0.151634
     16 H                    -0.015073
     17 H                    -0.165248
     18 H                     0.070140
     19 H                     0.104759
     20 H                     0.233438
  ----------------------------------------
  Sum of atomic charges =    -2.000000

                    Cartesian Multipole Moments
 -----------------------------------------------------------------
    Charge (ESU x 10^10)
                -9.6064
    Dipole Moment (Debye)
         X      -1.2575      Y       6.3247      Z      -3.0481
       Tot       7.1326
    Quadrupole Moments (Debye-Ang)
        XX    -102.3176     XY     -21.1781     YY    -130.3848
        XZ      -9.5778     YZ      -6.6675     ZZ     -85.5518

 Total job time:  54.26s(wall), 383.13s(cpu)
        *  Thank you very much for using Q-Chem.  Have a nice day.  *
