 Q-Chem 5.4, Q-Chem, Inc., Pleasanton, CA (2021)
 Q-Chem 5.4.0 for Intel X86 EM64T Linux

User input:
--------------------------------------------------------------
$molecule
-1 2
N                  3.1209650000     -1.2440510000      1.3154410000
C                  2.6606130000     -0.5359130000      0.2074570000
C                  3.5841870000     -0.1065770000     -0.7406820000
C                  3.1883840000      0.6605010000     -1.8392270000
C                  1.8689390000      1.0433740000     -2.0085440000
O                  1.5292920000      1.8061570000     -3.1045300000
C                  0.8785310000      0.6369210000     -1.0709280000
C                 -0.5085830000      1.0481910000     -1.2163840000
O                 -0.8750000000      1.8597080000     -2.1302710000
C                 -1.4938480000      0.5164810000     -0.2889540000
C                 -2.8543490000      0.9174910000     -0.4402250000
O                 -3.2363230000      1.7702680000     -1.4162460000
C                 -3.8170980000      0.4251820000      0.4331370000
C                 -3.4644750000     -0.4726050000      1.4391800000
C                 -2.1477030000     -0.8984450000      1.6234220000
N                 -1.8794390000     -1.8506700000      2.6117730000
C                 -1.1261510000     -0.3860060000      0.7615460000
C                  0.2749070000     -0.7284620000      0.9620020000
O                  0.6208980000     -1.4908370000      1.9335180000
C                  1.2737080000     -0.1972880000      0.0401370000
H                  3.9491440000     -1.7961050000      1.1502210000
H                  2.3626800000     -1.6877870000      1.8345440000
H                  4.6318110000     -0.3624110000     -0.6107630000
H                  3.9306290000      0.9745610000     -2.5706400000
H                  2.3431500000      1.9668140000     -3.5936760000
H                 -2.3700870000      1.9814820000     -1.9037850000
H                 -4.8448850000      0.7461020000      0.3039470000
H                 -4.2340930000     -0.8706100000      2.0957710000
H                 -0.8819530000     -1.9305500000      2.8043290000
H                 -2.4838500000     -1.7949170000      3.4184310000
$end
$rem
MAX_SCF_CYCLES=200
BASIS  =  6-311++G(d,p)
GUI  =  2
JOB_TYPE  =  SP
METHOD  =  B3LYP
SOLVENT_METHOD = COSMO
$end
$solvent
dielectric 37.219
opticaldielectric 1.43
$end

--------------------------------------------------------------

             Standard Nuclear Orientation (Angstroms)
    I     Atom           X                Y                Z
 ----------------------------------------------------------------
    1      N      -2.5211458333    -2.8329128900    -0.2276972943
    2      C      -2.4728268279    -1.4487739100    -0.0765798141
    3      C      -3.6701379937    -0.7439784105     0.0008486935
    4      C      -3.6833655657     0.6502052831     0.0899926773
    5      C      -2.5077091800     1.3808577059     0.0767946373
    6      O      -2.5731112743     2.7546265484     0.1596501459
    7      C      -1.2516560072     0.7166230306    -0.0029457808
    8      C      -0.0059817449     1.4656814442    -0.0428561208
    9      O       0.0084082718     2.7401855292    -0.1015329703
   10      C       1.2490862280     0.7323669141    -0.0174940930
   11      C       2.4682930314     1.4720639296    -0.0497121353
   12      O       2.4755824203     2.8222098937    -0.1026506033
   13      C       3.6828151167     0.7964500157    -0.0274205426
   14      C       3.7153163684    -0.5948522172     0.0481358001
   15      C       2.5493108939    -1.3617121748     0.0872556066
   16      N       2.6592872132    -2.7485686996     0.2289239237
   17      C       1.2815266545    -0.6992659804     0.0335842114
   18      C       0.0360133628    -1.4520595407    -0.0156167526
   19      O       0.0562966024    -2.7343351116    -0.0268729324
   20      C      -1.2301054382    -0.7270649510    -0.0457889372
   21      H      -3.3266829322    -3.2758130204     0.1881045578
   22      H      -1.6143866684    -3.2724989234    -0.0667077307
   23      H      -4.6077389297    -1.2918023504    -0.0244385189
   24      H      -4.6342505305     1.1751600523     0.1590330583
   25      H      -3.5071151380     2.9860290179     0.1987526375
   26      H       1.4895819759     3.0679274448    -0.1124713333
   27      H       4.5981619696     1.3771987304    -0.0573686486
   28      H       4.6733995960    -1.1065349358     0.0938404126
   29      H       1.7789157927    -3.2233133452     0.0339864175
   30      H       3.4822436546    -3.1467232524    -0.1992510762
 ----------------------------------------------------------------

    9    -950.2716746129      9.36e-06  Convergence criterion met
 Total energy in the final basis set =     -950.2716746129
    4    -950.3641518345      8.18e-06  Convergence criterion met
 Total energy in the final basis set =     -950.3641518345

                    Orbital Energies (a.u.)
 --------------------------------------------------------------

 Alpha MOs
 -- Occupied --
-19.1462 -19.1241 -19.0858 -19.0810 -14.2994 -14.2993 -10.2340 -10.2339
-10.2313 -10.2254 -10.2125 -10.2102 -10.1799 -10.1788 -10.1757 -10.1746
-10.1712 -10.1665 -10.1660 -10.1648  -1.0587  -1.0504  -1.0090  -1.0039
 -0.9107  -0.9052  -0.8466  -0.8284  -0.7846  -0.7450  -0.7327  -0.7178
 -0.6688  -0.6424  -0.6370  -0.5922  -0.5745  -0.5593  -0.5389  -0.5225
 -0.5103  -0.4968  -0.4939  -0.4767  -0.4588  -0.4509  -0.4474  -0.4375
 -0.4343  -0.4229  -0.4108  -0.4101  -0.3989  -0.3972  -0.3904  -0.3779
 -0.3737  -0.3697  -0.3611  -0.3555  -0.3513  -0.3449  -0.2960  -0.2854
 -0.2674  -0.2524  -0.2510  -0.2422  -0.2133  -0.1945  -0.1363

 Beta MOs
 -- Occupied --
-19.1458 -19.1236 -19.0814 -19.0768 -14.2990 -14.2988 -10.2322 -10.2319
-10.2309 -10.2249 -10.2124 -10.2098 -10.1796 -10.1785 -10.1756 -10.1746
-10.1705 -10.1652 -10.1650 -10.1639  -1.0576  -1.0485  -1.0019  -0.9970
 -0.9096  -0.9036  -0.8443  -0.8268  -0.7807  -0.7433  -0.7293  -0.7157
 -0.6627  -0.6403  -0.6348  -0.5910  -0.5729  -0.5570  -0.5379  -0.5218
 -0.5093  -0.4954  -0.4927  -0.4743  -0.4575  -0.4498  -0.4460  -0.4330
 -0.4298  -0.4207  -0.4075  -0.4065  -0.3960  -0.3924  -0.3852  -0.3768
 -0.3697  -0.3591  -0.3567  -0.3542  -0.3494  -0.3338  -0.2882  -0.2807
 -0.2532  -0.2487  -0.2469  -0.2385  -0.2013  -0.1871

          Ground-State Mulliken Net Atomic Charges

     Atom                 Charge (a.u.)    Spin (a.u.)
  --------------------------------------------------------
      1 N                    -0.463413       0.019104
      2 C                    -0.032819       0.009602
      3 C                    -0.216410       0.101268
      4 C                    -0.334559       0.052979
      5 C                    -0.183976       0.051611
      6 O                    -0.303502       0.011288
      7 C                     0.364693       0.005025
      8 C                    -0.469392       0.115262
      9 O                    -0.513895       0.152392
     10 C                     0.572552      -0.005248
     11 C                    -0.142889       0.056250
     12 O                    -0.469086       0.017645
     13 C                    -0.346527       0.062666
     14 C                    -0.279352       0.085250
     15 C                    -0.086922       0.029940
     16 N                    -0.459675       0.024183
     17 C                     0.283051      -0.010257
     18 C                    -0.487628       0.102008
     19 O                    -0.500948       0.142951
     20 C                     0.351492       0.010796
     21 H                     0.277220      -0.000898
     22 H                     0.329787      -0.002065
     23 H                     0.199742      -0.007781
     24 H                     0.187276      -0.005169
     25 H                     0.314056      -0.000483
     26 H                     0.407088      -0.003323
     27 H                     0.205024      -0.005326
     28 H                     0.198093      -0.006482
     29 H                     0.326384      -0.002282
     30 H                     0.274538      -0.000904
  --------------------------------------------------------
  Sum of atomic charges =    -1.000000

                    Cartesian Multipole Moments
 -----------------------------------------------------------------
    Charge (ESU x 10^10)
                -4.8032
    Dipole Moment (Debye)
         X      -4.6817      Y      -4.3737      Z       0.3258
       Tot       6.4152
    Quadrupole Moments (Debye-Ang)
        XX    -103.8320     XY     -13.0339     YY    -148.9107
        XZ      -7.3322     YZ       1.0408     ZZ    -125.5310

 Total job time:  111.71s(wall), 817.83s(cpu)
        *  Thank you very much for using Q-Chem.  Have a nice day.  *
