 Gaussian 16, Revision A.03,
 Gaussian 16:  ES64L-G16RevA.03 25-Dec-2016

 ----------------------------------------------------------------
 #P UB3LYP/6-311++G(d,p) SCRF=(PCM,Solvent=n,n-DiMethylFormamide)
 ----------------------------------------------------------------

 ------------------
 Radical PCM in DMF
 ------------------
 Symbolic Z-matrix:
 Charge = -1 Multiplicity = 2

                         Standard orientation:
 ---------------------------------------------------------------------
 Center     Atomic      Atomic             Coordinates (Angstroms)
 Number     Number       Type             X           Y           Z
 ---------------------------------------------------------------------
      1         35           0       -2.884292   -0.730409   -0.000038
      2          6           0       -1.205397    0.230149    0.000064
      3          6           0       -1.226302    1.594107    0.000016
      4          6           0       -0.000206    2.368180    0.000150
      5          8           0        0.000211    3.627695   -0.000105
      6          6           0        1.226061    1.593977    0.000033
      7          6           0        1.205610    0.230165    0.000079
      8         35           0        2.884327   -0.730419   -0.000041
      9          6           0       -0.000011   -0.593827    0.000236
     10          8           0       -0.000163   -1.839813    0.000041
     11          1           0       -2.158603    2.144816   -0.000092
     12          1           0        2.158457    2.144591   -0.000071
 ---------------------------------------------------------------------

 SCF Done:  E(UB3LYP) =  -5528.81513368     A.U. after   18 cycles

 The electronic state is 2-A.
 Alpha  occ. eigenvalues -- -482.82903-482.82901 -62.48179 -62.48177 -56.30205
 Alpha  occ. eigenvalues --  -56.30203 -56.29841 -56.29839 -56.29815 -56.29813
 Alpha  occ. eigenvalues --  -19.09597 -19.09221 -10.24976 -10.23834 -10.23163
 Alpha  occ. eigenvalues --  -10.23162 -10.18249 -10.18248  -8.69138  -8.69136
 Alpha  occ. eigenvalues --   -6.52243  -6.52241  -6.51029  -6.51027  -6.50955
 Alpha  occ. eigenvalues --   -6.50953  -2.63342  -2.63340  -2.63006  -2.63004
 Alpha  occ. eigenvalues --   -2.62952  -2.62949  -2.61985  -2.61985  -2.61983
 Alpha  occ. eigenvalues --   -2.61983  -1.02627  -1.01423  -0.86025  -0.82249
 Alpha  occ. eigenvalues --   -0.77615  -0.72753  -0.69739  -0.59879  -0.57943
 Alpha  occ. eigenvalues --   -0.50185  -0.48635  -0.44106  -0.43390  -0.42227
 Alpha  occ. eigenvalues --   -0.42178  -0.39511  -0.39373  -0.37138  -0.33835
 Alpha  occ. eigenvalues --   -0.32399  -0.29521  -0.29133  -0.27927  -0.26320
 Alpha  occ. eigenvalues --   -0.25360  -0.25344  -0.17859
 Alpha virt. eigenvalues --   -0.03043  -0.02852   0.00087   0.00184   0.01410
 Alpha virt. eigenvalues --    0.01598   0.02093   0.03910   0.04147   0.05175
 Alpha virt. eigenvalues --    0.05382   0.05865   0.07037   0.08010   0.08084

  Beta  occ. eigenvalues -- -482.82903-482.82900 -62.48179 -62.48177 -56.30207
  Beta  occ. eigenvalues --  -56.30205 -56.29838 -56.29836 -56.29815 -56.29813
  Beta  occ. eigenvalues --  -19.08914 -19.08486 -10.24840 -10.23734 -10.23062
  Beta  occ. eigenvalues --  -10.23061 -10.18117 -10.18117  -8.69137  -8.69135
  Beta  occ. eigenvalues --   -6.52247  -6.52244  -6.51023  -6.51021  -6.50956
  Beta  occ. eigenvalues --   -6.50953  -2.63344  -2.63341  -2.63005  -2.63002
  Beta  occ. eigenvalues --   -2.62954  -2.62952  -2.61982  -2.61982  -2.61980
  Beta  occ. eigenvalues --   -2.61980  -1.01451  -1.00141  -0.85493  -0.82116
  Beta  occ. eigenvalues --   -0.77389  -0.72530  -0.68714  -0.59461  -0.57503
  Beta  occ. eigenvalues --   -0.49958  -0.48196  -0.43614  -0.42123  -0.41612
  Beta  occ. eigenvalues --   -0.41602  -0.39101  -0.36942  -0.36501  -0.33488
  Beta  occ. eigenvalues --   -0.30762  -0.29496  -0.29078  -0.25714  -0.25677
  Beta  occ. eigenvalues --   -0.24753  -0.24711
  Beta virt. eigenvalues --   -0.10641  -0.02902  -0.01394   0.00151   0.00215
  Beta virt. eigenvalues --    0.01604   0.02138   0.03584   0.04185   0.04251
  Beta virt. eigenvalues --    0.05197   0.05424   0.05933   0.07038   0.08098

 Mulliken charges and spin densities:
               1          2
     1  Br  -0.154661   0.003583
     2  C    1.116610   0.096858
     3  C   -0.264359   0.077288
     4  C   -0.342835   0.120596
     5  O   -0.473586   0.256370
     6  C   -0.264122   0.077178
     7  C    1.115709   0.096548
     8  Br  -0.154589   0.003574
     9  C   -1.694161   0.033478
    10  O   -0.361188   0.250428
    11  H    0.238588  -0.007955
    12  H    0.238593  -0.007946
 Sum of Mulliken charges =  -1.00000   1.00000

 Dipole moment (field-independent basis, Debye):
    X=              0.0013    Y=             -2.0601    Z=              0.0003  Tot=              2.0601
 Quadrupole moment (field-independent basis, Debye-Ang):
   XX=            -92.0563   YY=           -125.0745   ZZ=            -85.9438
   XY=             -0.0047   XZ=             -0.0000   YZ=              0.0011

 Normal termination of Gaussian 16 at Sun Jan 21 07:08:13 2024.
