 Q-Chem 5.4, Q-Chem, Inc., Pleasanton, CA (2021)
 Q-Chem 5.4.0 for Intel X86 EM64T Linux

User input:
--------------------------------------------------------------
$molecule
-2 1
C                 -1.2386430000      2.8664750000     -0.0378440000
C                 -2.5353870000      2.3950280000      0.0443580000
C                 -2.7756720000      0.9982700000      0.1089520000
C                 -0.1219960000      1.9956860000     -0.0623790000
C                 -0.3692330000      0.5755450000      0.0039360000
C                 -1.7032540000      0.1233200000      0.0872470000
C                  1.2167830000      2.5690810000     -0.1407540000
C                  2.2591790000      1.5792930000     -0.1550300000
C                  2.0256150000      0.2019570000     -0.0947060000
C                  0.7282490000     -0.3873770000     -0.0146930000
O                  1.4290850000      3.8289220000     -0.1923110000
O                  0.5379170000     -1.6546920000      0.0380420000
H                 -1.0251830000      3.9297420000     -0.0880440000
H                 -1.8484570000     -0.9519080000      0.1347200000
O                  3.5493600000      2.0998610000     -0.2540110000
C                  4.6276780000      1.2712140000      0.1221230000
C                  5.8549920000      2.1204740000      0.2913270000
C                  7.0826970000      1.7695980000     -0.0902280000
H                 -3.3706700000      3.0932660000      0.0588880000
H                 -3.7941820000      0.6199320000      0.1739930000
H                  2.8533450000     -0.4992190000     -0.1224450000
H                  4.8119730000      0.4752300000     -0.6131430000
H                  4.3973440000      0.7755850000      1.0806460000
H                  5.6829760000      3.0726280000      0.7883600000
H                  7.2690480000      0.8302840000     -0.6067210000
H                  7.9525490000      2.3935130000      0.0908240000
$end
$rem
MAX_SCF_CYCLES=200
BASIS  =  6-311++G(d,p)
GUI  =  2
JOB_TYPE  =  SP
METHOD  =  B3LYP
SOLVENT_METHOD = PCM
$end
$pcm
theory = CPCM
$end
$solvent
dielectric 37.219
opticaldielectric 1.43
$end

--------------------------------------------------------------

             Standard Nuclear Orientation (Angstroms)
    I     Atom           X                Y                Z
 ----------------------------------------------------------------
    1      C      -1.2386430000     2.8664750000    -0.0378440000
    2      C      -2.5353870000     2.3950280000     0.0443580000
    3      C      -2.7756720000     0.9982700000     0.1089520000
    4      C      -0.1219960000     1.9956860000    -0.0623790000
    5      C      -0.3692330000     0.5755450000     0.0039360000
    6      C      -1.7032540000     0.1233200000     0.0872470000
    7      C       1.2167830000     2.5690810000    -0.1407540000
    8      C       2.2591790000     1.5792930000    -0.1550300000
    9      C       2.0256150000     0.2019570000    -0.0947060000
   10      C       0.7282490000    -0.3873770000    -0.0146930000
   11      O       1.4290850000     3.8289220000    -0.1923110000
   12      O       0.5379170000    -1.6546920000     0.0380420000
   13      H      -1.0251830000     3.9297420000    -0.0880440000
   14      H      -1.8484570000    -0.9519080000     0.1347200000
   15      O       3.5493600000     2.0998610000    -0.2540110000
   16      C       4.6276780000     1.2712140000     0.1221230000
   17      C       5.8549920000     2.1204740000     0.2913270000
   18      C       7.0826970000     1.7695980000    -0.0902280000
   19      H      -3.3706700000     3.0932660000     0.0588880000
   20      H      -3.7941820000     0.6199320000     0.1739930000
   21      H       2.8533450000    -0.4992190000    -0.1224450000
   22      H       4.8119730000     0.4752300000    -0.6131430000
   23      H       4.3973440000     0.7755850000     1.0806460000
   24      H       5.6829760000     3.0726280000     0.7883600000
   25      H       7.2690480000     0.8302840000    -0.6067210000
   26      H       7.9525490000     2.3935130000     0.0908240000
 ----------------------------------------------------------------

    9    -727.4879740577      4.84e-06  Convergence criterion met
 Total energy in the final basis set =     -727.4879740577

                    Orbital Energies (a.u.)
 --------------------------------------------------------------

 Alpha MOs
 -- Occupied --
-19.1255 -19.0209 -19.0178 -10.2128 -10.1821 -10.1746 -10.1736 -10.1689
-10.1633 -10.1484 -10.1463 -10.1455 -10.1439 -10.1366 -10.1345 -10.1210
 -1.0382  -0.9402  -0.9367  -0.8243  -0.7894  -0.7599  -0.7217  -0.7067
 -0.6798  -0.6311  -0.5886  -0.5755  -0.5576  -0.5292  -0.4994  -0.4827
 -0.4703  -0.4564  -0.4388  -0.4268  -0.4181  -0.4015  -0.3935  -0.3794
 -0.3740  -0.3689  -0.3595  -0.3508  -0.3350  -0.3255  -0.3214  -0.3164
 -0.3035  -0.2915  -0.2636  -0.2297  -0.2249  -0.2043  -0.2028  -0.1982
 -0.1084

          Ground-State Mulliken Net Atomic Charges

     Atom                 Charge (a.u.)
  ----------------------------------------
      1 C                     0.077184
      2 C                    -0.472004
      3 C                    -0.438099
      4 C                     0.065675
      5 C                     0.357637
      6 C                     0.112594
      7 C                    -0.524405
      8 C                    -0.392321
      9 C                     0.327819
     10 C                    -0.242756
     11 O                    -0.733868
     12 O                    -0.711655
     13 H                     0.142110
     14 H                     0.138676
     15 O                    -0.185010
     16 C                    -0.400771
     17 C                     0.049818
     18 C                    -0.532235
     19 H                     0.170166
     20 H                     0.170222
     21 H                     0.165056
     22 H                     0.161285
     23 H                     0.173004
     24 H                     0.199369
     25 H                     0.149944
     26 H                     0.172565
  ----------------------------------------
  Sum of atomic charges =    -2.000000

                    Cartesian Multipole Moments
 -----------------------------------------------------------------
    Charge (ESU x 10^10)
                -9.6064
    Dipole Moment (Debye)
         X      -7.0104      Y     -12.5699      Z       1.2804
       Tot      14.4494
    Quadrupole Moments (Debye-Ang)
        XX    -114.0329     XY     -22.4012     YY    -176.9104
        XZ       3.2645     YZ       5.8409     ZZ    -105.8248

 Total job time:  42.65s(wall), 280.78s(cpu)
        *  Thank you very much for using Q-Chem.  Have a nice day.  *
