 Gaussian 16, Revision A.03,
 Gaussian 16:  ES64L-G16RevA.03 25-Dec-2016

 ----------------------------------------------------------------------
 #P UB3LYP/6-311++G(d,p) nosym opt freq SCRF=(PCM,Solvent=n,n-DiMethylF
 ormamide)
 ----------------------------------------------------------------------

 --------
 Oxidized
 --------
 Symbolic Z-matrix:
 Charge =  0 Multiplicity = 1

 SCF Done:  E(UB3LYP) =  -843.796451019     A.U. after   15 cycles
 SCF Done:  E(UB3LYP) =  -843.796582357     A.U. after   13 cycles
 SCF Done:  E(UB3LYP) =  -843.796652331     A.U. after   12 cycles
 SCF Done:  E(UB3LYP) =  -843.796743620     A.U. after   11 cycles
 SCF Done:  E(UB3LYP) =  -843.796748739     A.U. after   10 cycles
 SCF Done:  E(UB3LYP) =  -843.796749219     A.U. after   11 cycles
 SCF Done:  E(UB3LYP) =  -843.796749268     A.U. after   11 cycles
 Optimization completed.
    -- Stationary point found.
 Normal termination of Gaussian 16 at Sat Feb 10 11:22:26 2024.

 ----------------------------------------------------------------------
 #P Geom=AllCheck Guess=TCheck SCRF=Check GenChk UB3LYP/6-311++G(d,p) F
 req
 ----------------------------------------------------------------------

 Structure from the checkpoint file:  "064.chk"
 --------
 Oxidized
 --------
 Charge =  0 Multiplicity = 1

                          Input orientation:
 ---------------------------------------------------------------------
 Center     Atomic      Atomic             Coordinates (Angstroms)
 Number     Number       Type             X           Y           Z
 ---------------------------------------------------------------------
      1          8           0        1.425171    2.227863    0.122743
      2          6           0        0.788816    1.194074   -0.037946
      3          6           0       -0.680445    1.242774   -0.135846
      4          6           0       -1.463523    0.148297   -0.230304
      5          6           0       -0.788856   -1.194141   -0.282331
      6          8           0       -1.425161   -2.227878   -0.443551
      7          6           0        0.680427   -1.242819   -0.184718
      8          6           0        1.463501   -0.148339   -0.090267
      9          6           0        2.936899   -0.237460   -0.009539
     10          6           0        3.535565   -1.219027    0.796774
     11          6           0        4.920958   -1.342982    0.854151
     12          6           0        5.731217   -0.492788    0.101509
     13          6           0        5.147233    0.485171   -0.704274
     14          6           0        3.762508    0.619893   -0.755135
     15          6           0       -2.936905    0.237442   -0.311286
     16          6           0       -3.535415    1.218920   -1.117824
     17          6           0       -4.920795    1.342903   -1.175446
     18          6           0       -5.731200    0.492830   -0.422824
     19          6           0       -5.147374   -0.485036    0.383186
     20          6           0       -3.762661   -0.619787    0.434292
     21          1           0       -1.105069    2.238658   -0.079623
     22          1           0        1.105061   -2.238688   -0.241123
     23          1           0        2.912963   -1.872217    1.397209
     24          1           0        5.366704   -2.099059    1.490209
     25          1           0        6.810018   -0.589442    0.144960
     26          1           0        5.771225    1.145818   -1.295233
     27          1           0        3.321387    1.379292   -1.386765
     28          1           0       -2.912698    1.872014   -1.718245
     29          1           0       -5.366417    2.098906   -1.811677
     30          1           0       -6.809991    0.589508   -0.466464
     31          1           0       -5.771479   -1.145586    0.974133
     32          1           0       -3.321664   -1.379112    1.066098
 ---------------------------------------------------------------------

 SCF Done:  E(UB3LYP) =  -843.796749268     A.U. after    1 cycles

 Alpha  occ. eigenvalues --  -19.14346 -19.14345 -10.29069 -10.29068 -10.22701
 Alpha  occ. eigenvalues --  -10.22700 -10.20894 -10.20893 -10.20506 -10.20506
 Alpha  occ. eigenvalues --  -10.19076 -10.19076 -10.18966 -10.18966 -10.18804
 Alpha  occ. eigenvalues --  -10.18804 -10.18665 -10.18665 -10.18616 -10.18615
 Alpha  occ. eigenvalues --   -1.07411  -1.07219  -0.88818  -0.87980  -0.85813
 Alpha  occ. eigenvalues --   -0.81960  -0.77020  -0.76247  -0.76219  -0.74854
 Alpha  occ. eigenvalues --   -0.70840  -0.66060  -0.63638  -0.62225  -0.61289
 Alpha  occ. eigenvalues --   -0.60826  -0.58392  -0.53783  -0.53341  -0.52946
 Alpha  occ. eigenvalues --   -0.49924  -0.48976  -0.47432  -0.46966  -0.46960
 Alpha  occ. eigenvalues --   -0.46272  -0.45365  -0.44683  -0.43857  -0.43637
 Alpha  occ. eigenvalues --   -0.43198  -0.43153  -0.42203  -0.41181  -0.38608
 Alpha  occ. eigenvalues --   -0.38484  -0.36892  -0.36765  -0.36060  -0.35950
 Alpha  occ. eigenvalues --   -0.31961  -0.31690  -0.29523  -0.28352  -0.26961
 Alpha  occ. eigenvalues --   -0.26926  -0.26468  -0.25601
 Alpha virt. eigenvalues --   -0.13949  -0.06144  -0.02783  -0.02643  -0.02612
 Alpha virt. eigenvalues --   -0.01599  -0.00699  -0.00203   0.00764   0.01161
 Alpha virt. eigenvalues --    0.01218   0.01611   0.02263   0.02738   0.03296

  Beta  occ. eigenvalues --  -19.14346 -19.14345 -10.29069 -10.29068 -10.22701
  Beta  occ. eigenvalues --  -10.22700 -10.20894 -10.20893 -10.20506 -10.20506
  Beta  occ. eigenvalues --  -10.19076 -10.19076 -10.18966 -10.18966 -10.18804
  Beta  occ. eigenvalues --  -10.18804 -10.18665 -10.18665 -10.18616 -10.18615
  Beta  occ. eigenvalues --   -1.07411  -1.07219  -0.88818  -0.87980  -0.85813
  Beta  occ. eigenvalues --   -0.81960  -0.77020  -0.76247  -0.76219  -0.74854
  Beta  occ. eigenvalues --   -0.70840  -0.66060  -0.63638  -0.62225  -0.61289
  Beta  occ. eigenvalues --   -0.60826  -0.58392  -0.53783  -0.53341  -0.52946
  Beta  occ. eigenvalues --   -0.49924  -0.48976  -0.47432  -0.46966  -0.46960
  Beta  occ. eigenvalues --   -0.46272  -0.45365  -0.44683  -0.43857  -0.43637
  Beta  occ. eigenvalues --   -0.43198  -0.43153  -0.42203  -0.41181  -0.38608
  Beta  occ. eigenvalues --   -0.38484  -0.36892  -0.36765  -0.36060  -0.35950
  Beta  occ. eigenvalues --   -0.31961  -0.31690  -0.29523  -0.28352  -0.26961
  Beta  occ. eigenvalues --   -0.26926  -0.26468  -0.25601
  Beta virt. eigenvalues --   -0.13949  -0.06144  -0.02783  -0.02643  -0.02612
  Beta virt. eigenvalues --   -0.01599  -0.00699  -0.00203   0.00764   0.01161
  Beta virt. eigenvalues --    0.01218   0.01611   0.02263   0.02738   0.03296

 Mulliken charges and spin densities:
               1          2
     1  O   -0.273173  -0.000000
     2  C   -0.829406   0.000000
     3  C   -0.470177  -0.000000
     4  C    1.133863   0.000000
     5  C   -0.829724  -0.000000
     6  O   -0.273131   0.000000
     7  C   -0.470087  -0.000000
     8  C    1.133414   0.000000
     9  C    1.358041  -0.000000
    10  C   -0.759976   0.000000
    11  C   -0.191646  -0.000000
    12  C   -0.507708  -0.000000
    13  C   -0.127801  -0.000000
    14  C   -0.560983  -0.000000
    15  C    1.357948  -0.000000
    16  C   -0.760419   0.000000
    17  C   -0.191373  -0.000000
    18  C   -0.507950   0.000000
    19  C   -0.127469  -0.000000
    20  C   -0.561323  -0.000000
    21  H    0.232098  -0.000000
    22  H    0.232107  -0.000000
    23  H    0.198682   0.000000
    24  H    0.204764  -0.000000
    25  H    0.190261   0.000000
    26  H    0.208181  -0.000000
    27  H    0.195554   0.000000
    28  H    0.198662   0.000000
    29  H    0.204772  -0.000000
    30  H    0.190255   0.000000
    31  H    0.208191  -0.000000
    32  H    0.195555  -0.000000
 Sum of Mulliken charges =  -0.00000  -0.00000

 Dipole moment (field-independent basis, Debye):
    X=             -0.0001    Y=             -0.0001    Z=              0.0005  Tot=              0.0005
 Quadrupole moment (field-independent basis, Debye-Ang):
   XX=            -90.3539   YY=           -123.9390   ZZ=           -114.0350
   XY=            -14.1217   XZ=             -1.2922   YZ=            -11.6493

  Exact polarizability: 473.137  45.168 292.151  14.163 -39.650 192.619
 Approx polarizability: 501.949  86.140 385.431  14.294 -51.346 232.267

                      1                      2                      3
                      A                      A                      A
 Frequencies --     24.8536                48.6307                63.5465
 Red. masses --      6.5017                 3.8022                 5.5282
 Frc consts  --      0.0024                 0.0053                 0.0132
 IR Inten    --      2.7682                 1.3971                 1.6478

                      4                      5                      6
                      A                      A                      A
 Frequencies --     64.3246                94.6196               110.8953
 Red. masses --      5.2527                 5.1701                 7.7940
 Frc consts  --      0.0128                 0.0273                 0.0565
 IR Inten    --      0.0000                 0.0000                10.8846

                      7                      8                      9
                      A                      A                      A
 Frequencies --    122.4985               198.9944               214.7897
 Red. masses --      5.1555                 6.8770                 5.2896
 Frc consts  --      0.0456                 0.1604                 0.1438
 IR Inten    --      0.0000                 0.0000                 0.0000

                     10                     11                     12
                      A                      A                      A
 Frequencies --    224.9610               295.2801               304.3262
 Red. masses --      4.8934                 5.7101                 5.4228
 Frc consts  --      0.1459                 0.2933                 0.2959
 IR Inten    --      5.0490                 0.0000                 3.3833

                     13                     14                     15
                      A                      A                      A
 Frequencies --    324.8881               414.1458               414.5270
 Red. masses --      7.6581                 2.8815                 2.8944
 Frc consts  --      0.4763                 0.2912                 0.2930
 IR Inten    --      8.4628                 0.0002                 6.5763

                     16                     17                     18
                      A                      A                      A
 Frequencies --    433.1088               440.3410               471.6550
 Red. masses --      5.6993                 3.5936                11.5578
 Frc consts  --      0.6299                 0.4105                 1.5149
 IR Inten    --      0.0000                 3.6299                 0.0000

                     19                     20                     21
                      A                      A                      A
 Frequencies --    488.1461               512.1608               537.7143
 Red. masses --      7.5420                 3.4666                 4.4043
 Frc consts  --      1.0589                 0.5358                 0.7503
 IR Inten    --     72.6266                42.8505                 0.0000

                     22                     23                     24
                      A                      A                      A
 Frequencies --    574.6334               631.0118               631.3217
 Red. masses --      6.7407                 6.4217                 6.3611
 Frc consts  --      1.3114                 1.5065                 1.4938
 IR Inten    --      0.0000                 1.0003                 0.0000

                     25                     26                     27
                      A                      A                      A
 Frequencies --    667.5889               689.7769               706.0190
 Red. masses --      5.2144                 6.1285                 2.2000
 Frc consts  --      1.3692                 1.7180                 0.6461
 IR Inten    --      0.0000                 0.0000                86.5376

                     28                     29                     30
                      A                      A                      A
 Frequencies --    707.7195               708.2980               724.2348
 Red. masses --      1.6068                 4.6115                 2.5300
 Frc consts  --      0.4742                 1.3631                 0.7819
 IR Inten    --      0.0000                51.8130                67.1375

                     31                     32                     33
                      A                      A                      A
 Frequencies --    783.2061               789.6464               796.0254
 Red. masses --      2.1357                 3.2229                 3.1453
 Frc consts  --      0.7719                 1.1840                 1.1743
 IR Inten    --      0.0000                60.7541                 0.0001

                     34                     35                     36
                      A                      A                      A
 Frequencies --    832.8825               856.0832               856.1317
 Red. masses --      3.6131                 1.2479                 1.2510
 Frc consts  --      1.4767                 0.5389                 0.5402
 IR Inten    --     16.0680                 0.0248                 8.2686

                     37                     38                     39
                      A                      A                      A
 Frequencies --    908.2393               909.2083               935.1224
 Red. masses --      2.4841                 2.7275                 1.4667
 Frc consts  --      1.2073                 1.3284                 0.7557
 IR Inten    --      0.0000                 0.0000                79.3606

                     40                     41                     42
                      A                      A                      A
 Frequencies --    946.0960               946.1441               993.5997
 Red. masses --      1.4956                 1.4722                 1.3841
 Frc consts  --      0.7887                 0.7765                 0.8051
 IR Inten    --     10.7628                 0.0311                 2.3021

                     43                     44                     45
                      A                      A                      A
 Frequencies --    993.7193              1005.3123              1012.9289
 Red. masses --      1.3752                 3.8492                 1.7917
 Frc consts  --      0.8001                 2.2921                 1.0831
 IR Inten    --      0.0006                75.3296                 0.0000

                     46                     47                     48
                      A                      A                      A
 Frequencies --   1013.6126              1013.7260              1013.9921
 Red. masses --      2.9621                 1.7633                 2.6866
 Frc consts  --      1.7931                 1.0676                 1.6275
 IR Inten    --     12.4913                16.8810                 0.0001

                     49                     50                     51
                      A                      A                      A
 Frequencies --   1049.3959              1052.6459              1104.2550
 Red. masses --      2.1656                 1.9988                 1.6140
 Frc consts  --      1.4051                 1.3049                 1.1595
 IR Inten    --      0.0000                 6.5088                22.6304

                     52                     53                     54
                      A                      A                      A
 Frequencies --   1104.5367              1179.4265              1179.4334
 Red. masses --      1.6063                 1.1025                 1.1027
 Frc consts  --      1.1546                 0.9036                 0.9038
 IR Inten    --      0.0000                 0.0050                 0.3766

                     55                     56                     57
                      A                      A                      A
 Frequencies --   1196.4419              1203.7322              1206.3270
 Red. masses --      2.8836                 1.1802                 1.4485
 Frc consts  --      2.4320                 1.0076                 1.2419
 IR Inten    --    626.8786                 0.0000               100.0653

                     58                     59                     60
                      A                      A                      A
 Frequencies --   1209.2909              1270.1963              1280.0547
 Red. masses --      2.4974                 1.8577                 2.2239
 Frc consts  --      2.1518                 1.7659                 2.1469
 IR Inten    --      0.0000                 0.0000                18.1907

                     61                     62                     63
                      A                      A                      A
 Frequencies --   1311.9246              1320.7965              1349.2226
 Red. masses --      4.2593                 5.0275                 2.4706
 Frc consts  --      4.3193                 5.1674                 2.6498
 IR Inten    --      0.0000                49.8882                 0.0000

                     64                     65                     66
                      A                      A                      A
 Frequencies --   1352.9839              1365.4353              1366.1372
 Red. masses --      1.8115                 1.8564                 1.9855
 Frc consts  --      1.9537                 2.0392                 2.1833
 IR Inten    --     57.3998                48.9444                 0.0005

                     67                     68                     69
                      A                      A                      A
 Frequencies --   1471.5574              1471.7076              1521.3654
 Red. masses --      2.1828                 2.1952                 2.1887
 Frc consts  --      2.7850                 2.8013                 2.9847
 IR Inten    --     26.0777                 0.0000                20.5110

                     70                     71                     72
                      A                      A                      A
 Frequencies --   1521.5026              1606.5762              1607.9330
 Red. masses --      2.1812                 5.2279                 5.1536
 Frc consts  --      2.9751                 7.9502                 7.8505
 IR Inten    --      0.0002                66.7693                 0.0000

                     73                     74                     75
                      A                      A                      A
 Frequencies --   1628.2862              1634.0753              1634.6257
 Red. masses --      7.1916                 5.5213                 6.0098
 Frc consts  --     11.2341                 8.6863                 9.4612
 IR Inten    --    592.6010                 0.0000                14.6204

                     76                     77                     78
                      A                      A                      A
 Frequencies --   1663.2936              1684.1090              1691.5504
 Red. masses --     10.2366                12.3308                 9.4083
 Frc consts  --     16.6857                20.6055                15.8610
 IR Inten    --      0.0000              1109.1808                 0.0000

                     79                     80                     81
                      A                      A                      A
 Frequencies --   3168.3397              3168.3515              3175.2763
 Red. masses --      1.0860                 1.0860                 1.0887
 Frc consts  --      6.4229                 6.4229                 6.4673
 IR Inten    --      1.6874                 0.0002                10.5621

                     82                     83                     84
                      A                      A                      A
 Frequencies --   3175.2846              3182.7365              3183.1575
 Red. masses --      1.0887                 1.0925                 1.0928
 Frc consts  --      6.4673                 6.5205                 6.5242
 IR Inten    --      0.0595                33.4338                 0.0002

                     85                     86                     87
                      A                      A                      A
 Frequencies --   3184.9802              3186.2481              3192.7580
 Red. masses --      1.0920                 1.0920                 1.0969
 Frc consts  --      6.5265                 6.5318                 6.5880
 IR Inten    --     23.1462                 0.0000                57.2976

                     88                     89                     90
                      A                      A                      A
 Frequencies --   3192.8426              3206.7835              3206.8245
 Red. masses --      1.0968                 1.0938                 1.0938
 Frc consts  --      6.5879                 6.6273                 6.6275
 IR Inten    --      0.0001                 0.0001                15.0882

 - Thermochemistry -
 -------------------
 Temperature   298.150 Kelvin.  Pressure   1.00000 Atm.
 Atom     1 has atomic number  8 and mass  15.99491

 Molecular mass:   260.08373 amu.
 Principal axes and moments of inertia in atomic units:
                           1         2         3
     Eigenvalues --  1544.00872********************
           X            0.99727   0.06438  -0.03613
           Y           -0.05486   0.97378   0.22080
           Z            0.04940  -0.21821   0.97465
 This molecule is an asymmetric top.
 Rotational symmetry number  1.
 Warning -- assumption of classical behavior for rotation
           may cause significant error
 Rotational temperatures (Kelvin)      0.05610     0.00728     0.00666
 Rotational constants (GHZ):           1.16887     0.15166     0.13875
 Zero-point vibrational energy     645463.6 (Joules/Mol)
                                  154.26951 (Kcal/Mol)
 Warning -- explicit consideration of  22 degrees of freedom as
           vibrations may cause significant error
 Vibrational temperatures:     35.76    69.97    91.43    92.55   136.14
          (Kelvin)            159.55   176.25   286.31   309.03   323.67
                              424.84   437.86   467.44   595.86   596.41
                              623.15   633.55   678.61   702.33   736.89
                              773.65   826.77   907.89   908.33   960.51
                              992.44  1015.80  1018.25  1019.08  1042.01
                             1126.86  1136.13  1145.30  1198.33  1231.71
                             1231.78  1306.75  1308.15  1345.43  1361.22
                             1361.29  1429.57  1429.74  1446.42  1457.38
                             1458.36  1458.53  1458.91  1509.85  1514.52
                             1588.78  1589.18  1696.93  1696.94  1721.41
                             1731.90  1735.64  1739.90  1827.53  1841.71
                             1887.57  1900.33  1941.23  1946.64  1964.56
                             1965.57  2117.24  2117.46  2188.91  2189.10
                             2311.50  2313.46  2342.74  2351.07  2351.86
                             2393.11  2423.06  2433.76  4558.53  4558.55
                             4568.51  4568.53  4579.25  4579.85  4582.48
                             4584.30  4593.67  4593.79  4613.85  4613.91

 Zero-point correction=                           0.245844 (Hartree/Particle)
 Thermal correction to Energy=                    0.261461
 Thermal correction to Enthalpy=                  0.262405
 Thermal correction to Gibbs Free Energy=         0.201257
 Sum of electronic and zero-point Energies=           -843.550905
 Sum of electronic and thermal Energies=              -843.535288
 Sum of electronic and thermal Enthalpies=            -843.534344
 Sum of electronic and thermal Free Energies=         -843.595492

                     E (Thermal)             CV                S
                      KCal/Mol        Cal/Mol-Kelvin    Cal/Mol-Kelvin
 Total                  164.069             61.588            128.697
 Electronic               0.000              0.000              0.000
 Translational            0.889              2.981             42.567
 Rotational               0.889              2.981             33.835
 Vibrational            162.292             55.626             52.295
 Vibration     1          0.593              1.985              6.203
 Vibration     2          0.595              1.978              4.872
 Vibration     3          0.597              1.972              4.344
 Vibration     4          0.597              1.971              4.320
 Vibration     5          0.603              1.953              3.562
 Vibration     6          0.607              1.940              3.253
 Vibration     7          0.610              1.930              3.061
 Vibration     8          0.637              1.841              2.142
 Vibration     9          0.645              1.818              2.003
 Vibration    10          0.650              1.803              1.919
 Vibration    11          0.689              1.683              1.444
 Vibration    12          0.695              1.665              1.393
 Vibration    13          0.709              1.626              1.285
 Vibration    14          0.778              1.440              0.912
 Vibration    15          0.778              1.439              0.911
 Vibration    16          0.794              1.398              0.849
 Vibration    17          0.800              1.382              0.826
 Vibration    18          0.829              1.313              0.733
 Vibration    19          0.844              1.276              0.688
 Vibration    20          0.867              1.223              0.628
 Vibration    21          0.893              1.167              0.570
 Vibration    22          0.931              1.086              0.495

 Optimization completed.
    -- Stationary point found.
 Normal termination of Gaussian 16 at Sat Feb 10 13:17:21 2024.
