 Q-Chem 5.4, Q-Chem, Inc., Pleasanton, CA (2021)
 Q-Chem 5.4.0 for Intel X86 EM64T Linux

User input:
--------------------------------------------------------------
$molecule
0 1
C                  5.8168810000     -5.1095630000      1.2543830000
C                  6.8112150000     -5.0400580000      0.2901320000
C                  6.6920060000     -4.1292620000     -0.7740590000
C                  4.6982000000     -4.2764600000      1.1696340000
C                  4.5790240000     -3.3690260000      0.1101780000
C                  5.5742760000     -3.2937530000     -0.8624050000
C                  3.6326040000     -4.3593120000      2.2125920000
C                  2.4492940000     -3.4569610000      2.0937710000
C                  2.3356070000     -2.5754800000      1.0678920000
C                  3.3869850000     -2.4744480000      0.0124610000
O                  3.7330650000     -5.1487660000      3.1378790000
O                  3.2803830000     -1.6824460000     -0.9093020000
C                  7.7195800000     -4.0589790000     -1.7689780000
N                  8.5522370000     -4.0076750000     -2.5679670000
H                  5.8888890000     -5.8038170000      2.0820410000
H                  7.6811810000     -5.6822890000      0.3488010000
H                  5.4675830000     -2.5870560000     -1.6753280000
C                  1.4019580000     -3.5758620000      3.1648990000
C                  1.1544550000     -1.6567120000      0.9302400000
H                  1.6652610000     -4.3592120000      3.8727190000
H                  0.4238550000     -3.8048080000      2.7308810000
H                  1.2950460000     -2.6329030000      3.7108980000
H                  0.2276300000     -2.2287060000      0.8181460000
H                  1.2711280000     -1.0107360000      0.0624400000
H                  1.0381590000     -1.0338340000      1.8224120000
$end
$rem
MAX_SCF_CYCLES=200
BASIS  =  6-311++G(d,p)
GUI  =  2
JOB_TYPE  =  SP
METHOD  =  B3LYP
SOLVENT_METHOD = PCM
$end
$pcm
theory = CPCM
$end
$solvent
dielectric 37.219
opticaldielectric 1.43
$end

--------------------------------------------------------------

             Standard Nuclear Orientation (Angstroms)
    I     Atom           X                Y                Z
 ----------------------------------------------------------------
    1      C       5.8168810000    -5.1095630000     1.2543830000
    2      C       6.8112150000    -5.0400580000     0.2901320000
    3      C       6.6920060000    -4.1292620000    -0.7740590000
    4      C       4.6982000000    -4.2764600000     1.1696340000
    5      C       4.5790240000    -3.3690260000     0.1101780000
    6      C       5.5742760000    -3.2937530000    -0.8624050000
    7      C       3.6326040000    -4.3593120000     2.2125920000
    8      C       2.4492940000    -3.4569610000     2.0937710000
    9      C       2.3356070000    -2.5754800000     1.0678920000
   10      C       3.3869850000    -2.4744480000     0.0124610000
   11      O       3.7330650000    -5.1487660000     3.1378790000
   12      O       3.2803830000    -1.6824460000    -0.9093020000
   13      C       7.7195800000    -4.0589790000    -1.7689780000
   14      N       8.5522370000    -4.0076750000    -2.5679670000
   15      H       5.8888890000    -5.8038170000     2.0820410000
   16      H       7.6811810000    -5.6822890000     0.3488010000
   17      H       5.4675830000    -2.5870560000    -1.6753280000
   18      C       1.4019580000    -3.5758620000     3.1648990000
   19      C       1.1544550000    -1.6567120000     0.9302400000
   20      H       1.6652610000    -4.3592120000     3.8727190000
   21      H       0.4238550000    -3.8048080000     2.7308810000
   22      H       1.2950460000    -2.6329030000     3.7108980000
   23      H       0.2276300000    -2.2287060000     0.8181460000
   24      H       1.2711280000    -1.0107360000     0.0624400000
   25      H       1.0381590000    -1.0338340000     1.8224120000
 ----------------------------------------------------------------

    9    -706.1976819353      3.27e-06  Convergence criterion met
 Total energy in the final basis set =     -706.1976819353

                    Orbital Energies (a.u.)
 --------------------------------------------------------------

 Alpha MOs
 -- Occupied --
-19.1406 -19.1401 -14.3373 -10.2886 -10.2886 -10.2441 -10.2379 -10.2212
-10.2194 -10.2186 -10.2178 -10.2166 -10.2159 -10.2088 -10.1716 -10.1716
 -1.0751  -1.0733  -0.9397  -0.9060  -0.8591  -0.8135  -0.7946  -0.7506
 -0.7166  -0.6953  -0.6547  -0.6326  -0.5984  -0.5741  -0.5479  -0.5169
 -0.5025  -0.4733  -0.4694  -0.4685  -0.4646  -0.4359  -0.4330  -0.4300
 -0.4212  -0.4117  -0.4116  -0.4000  -0.3998  -0.3947  -0.3821  -0.3774
 -0.3676  -0.3627  -0.2978  -0.2971  -0.2910  -0.2805  -0.2775

          Ground-State Mulliken Net Atomic Charges

     Atom                 Charge (a.u.)
  ----------------------------------------
      1 C                     0.052477
      2 C                    -0.649266
      3 C                     1.534971
      4 C                     0.191893
      5 C                    -0.045208
      6 C                     0.214765
      7 C                    -0.572751
      8 C                     0.367102
      9 C                     0.877890
     10 C                    -0.714762
     11 O                    -0.281380
     12 O                    -0.276343
     13 C                    -1.450484
     14 N                    -0.255717
     15 H                     0.204299
     16 H                     0.252858
     17 H                     0.226785
     18 C                    -0.441639
     19 C                    -0.387272
     20 H                     0.199556
     21 H                     0.185463
     22 H                     0.191776
     23 H                     0.192420
     24 H                     0.196348
     25 H                     0.186221
  ----------------------------------------
  Sum of atomic charges =     0.000000

                    Cartesian Multipole Moments
 -----------------------------------------------------------------
    Charge (ESU x 10^10)
                -0.0000
    Dipole Moment (Debye)
         X      -4.4270      Y      -0.2385      Z       4.1994
       Tot       6.1065
    Quadrupole Moments (Debye-Ang)
        XX    -136.9379     XY       9.5895     YY     -92.9155
        XZ      28.2928     YZ      -6.9119     ZZ    -108.5064

 Total job time:  36.67s(wall), 277.13s(cpu)
        *  Thank you very much for using Q-Chem.  Have a nice day.  *
