 Gaussian 16, Revision A.03,
 Gaussian 16:  ES64L-G16RevA.03 25-Dec-2016

 --------------------------------------
 #P UB3LYP/6-311++G(d,p) nosym opt freq
 --------------------------------------

 -------
 Reduced
 -------
 Symbolic Z-matrix:
 Charge = -2 Multiplicity = 1

 SCF Done:  E(UB3LYP) =  -649.568839840     A.U. after   37 cycles
 SCF Done:  E(UB3LYP) =  -649.583950064     A.U. after   29 cycles
 SCF Done:  E(UB3LYP) =  -649.586296394     A.U. after   27 cycles
 SCF Done:  E(UB3LYP) =  -649.586473926     A.U. after   28 cycles
 SCF Done:  E(UB3LYP) =  -649.586645290     A.U. after   28 cycles
 SCF Done:  E(UB3LYP) =  -649.586826020     A.U. after   28 cycles
 SCF Done:  E(UB3LYP) =  -649.586796244     A.U. after   30 cycles
 SCF Done:  E(UB3LYP) =  -649.586756627     A.U. after   33 cycles
 SCF Done:  E(UB3LYP) =  -649.586889235     A.U. after   29 cycles
 SCF Done:  E(UB3LYP) =  -649.586919476     A.U. after   29 cycles
 SCF Done:  E(UB3LYP) =  -649.586929295     A.U. after   28 cycles
 SCF Done:  E(UB3LYP) =  -649.586929359     A.U. after   25 cycles
 Optimization completed.
    -- Stationary point found.
 Normal termination of Gaussian 16 at Wed Dec 20 03:00:39 2023.

 ----------------------------------------------------------------------
 #P Geom=AllCheck Guess=TCheck SCRF=Check GenChk UB3LYP/6-311++G(d,p) F
 req
 ----------------------------------------------------------------------

 Structure from the checkpoint file:  "100-an.chk"
 -------
 Reduced
 -------
 Charge = -2 Multiplicity = 1

                          Input orientation:
 ---------------------------------------------------------------------
 Center     Atomic      Atomic             Coordinates (Angstroms)
 Number     Number       Type             X           Y           Z
 ---------------------------------------------------------------------
      1          6           0        2.344836    3.580666    2.752705
      2          6           0        3.422230    3.510018    1.819464
      3          6           0        3.395294    2.687785    0.698933
      4          6           0        2.247677    1.830975    0.409601
      5          6           0        1.170268    1.901640    1.342824
      6          6           0        1.197164    2.723958    2.463287
      7          8           0        2.334407    4.341574    3.789365
      8          8           0        2.258162    1.070031   -0.627013
      9          7           0        0.189779    2.781578    3.435876
     10          6           0       -1.209414    2.600326    3.121281
     11          6           0       -2.052529    2.444979    4.389744
     12          7           0        4.402575    2.630198   -0.273719
     13          6           0        5.801731    2.812081    0.040529
     14          6           0        6.644577    2.966895   -1.228171
     15          1           0        4.281016    4.141224    2.030552
     16          1           0        0.311476    1.270432    1.131760
     17          1           0        0.403448    3.569076    4.047028
     18          1           0       -1.318384    1.705716    2.503566
     19          1           0       -1.617655    3.439478    2.519222
     20          1           0       -1.725455    1.577883    4.971905
     21          1           0       -3.114404    2.319390    4.147634
     22          1           0       -1.967754    3.329169    5.032150
     23          1           0        4.188940    1.842649   -0.884821
     24          1           0        6.210387    1.973479    0.643097
     25          1           0        5.910504    3.707144    0.657617
     26          1           0        6.560124    2.082201   -1.869923
     27          1           0        7.706428    3.093171   -0.986317
     28          1           0        6.317004    3.833416   -1.810907
 ---------------------------------------------------------------------

 SCF Done:  E(UB3LYP) =  -649.586929359     A.U. after    2 cycles

 Alpha  occ. eigenvalues --  -18.81250 -18.81249 -14.08539 -14.08538  -9.99428
 Alpha  occ. eigenvalues --   -9.99427  -9.96987  -9.96987  -9.96440  -9.96439
 Alpha  occ. eigenvalues --   -9.95280  -9.95278  -9.90669  -9.90668  -0.73539
 Alpha  occ. eigenvalues --   -0.73041  -0.68962  -0.68788  -0.57046  -0.55300
 Alpha  occ. eigenvalues --   -0.53003  -0.47219  -0.43849  -0.42492  -0.39482
 Alpha  occ. eigenvalues --   -0.33855  -0.33614  -0.28574  -0.26527  -0.26362
 Alpha  occ. eigenvalues --   -0.25161  -0.24687  -0.22378  -0.19651  -0.19590
 Alpha  occ. eigenvalues --   -0.19271  -0.18140  -0.17903  -0.16672  -0.15785
 Alpha  occ. eigenvalues --   -0.14861  -0.14548  -0.14086  -0.13961  -0.10898
 Alpha  occ. eigenvalues --   -0.10063  -0.06798  -0.04685   0.00932   0.01184
 Alpha  occ. eigenvalues --    0.01477   0.04136   0.11967
 Alpha virt. eigenvalues --    0.13455   0.13869   0.16722   0.16777   0.17450
 Alpha virt. eigenvalues --    0.17572   0.18240   0.18498   0.20393   0.20623
 Alpha virt. eigenvalues --    0.21678   0.22407   0.23011   0.23729   0.24563

  Beta  occ. eigenvalues --  -18.81250 -18.81249 -14.08539 -14.08538  -9.99428
  Beta  occ. eigenvalues --   -9.99427  -9.96987  -9.96987  -9.96440  -9.96439
  Beta  occ. eigenvalues --   -9.95280  -9.95278  -9.90669  -9.90668  -0.73539
  Beta  occ. eigenvalues --   -0.73041  -0.68962  -0.68788  -0.57046  -0.55300
  Beta  occ. eigenvalues --   -0.53003  -0.47219  -0.43849  -0.42492  -0.39482
  Beta  occ. eigenvalues --   -0.33855  -0.33614  -0.28574  -0.26527  -0.26362
  Beta  occ. eigenvalues --   -0.25161  -0.24687  -0.22378  -0.19651  -0.19590
  Beta  occ. eigenvalues --   -0.19271  -0.18140  -0.17903  -0.16672  -0.15785
  Beta  occ. eigenvalues --   -0.14861  -0.14548  -0.14086  -0.13961  -0.10898
  Beta  occ. eigenvalues --   -0.10063  -0.06798  -0.04685   0.00932   0.01184
  Beta  occ. eigenvalues --    0.01477   0.04136   0.11967
  Beta virt. eigenvalues --    0.13455   0.13869   0.16722   0.16777   0.17450
  Beta virt. eigenvalues --    0.17572   0.18240   0.18498   0.20393   0.20623
  Beta virt. eigenvalues --    0.21678   0.22407   0.23011   0.23729   0.24563

 Mulliken charges and spin densities:
               1          2
     1  C   -0.589835  -0.000000
     2  C    0.009086   0.000000
     3  C    0.209981   0.000000
     4  C   -0.589908  -0.000000
     5  C    0.009133  -0.000000
     6  C    0.209624   0.000000
     7  O   -0.517898  -0.000000
     8  O   -0.517886  -0.000000
     9  N   -0.055373  -0.000000
    10  C   -0.807339   0.000000
    11  C    1.437224  -0.000000
    12  N   -0.055389  -0.000000
    13  C   -0.807603   0.000000
    14  C    1.437364  -0.000000
    15  H    0.040412   0.000000
    16  H    0.040475  -0.000000
    17  H    0.428039  -0.000000
    18  H    0.194236   0.000000
    19  H   -0.066352   0.000000
    20  H   -0.180764   0.000000
    21  H   -0.825965   0.000000
    22  H   -0.275290   0.000000
    23  H    0.428097  -0.000000
    24  H   -0.066317   0.000000
    25  H    0.194480  -0.000000
    26  H   -0.275177   0.000000
    27  H   -0.826194   0.000000
    28  H   -0.180860   0.000000
 Sum of Mulliken charges =  -2.00000   0.00000

 Dipole moment (field-independent basis, Debye):
    X=            -22.0588    Y=            -25.9946    Z=            -15.1879  Tot=             37.3227
 Quadrupole moment (field-independent basis, Debye-Ang):
   XX=           -285.6880   YY=           -192.0992   ZZ=           -193.1415
   XY=            -66.7398   XZ=             26.0632   YZ=            -53.9138

  Exact polarizability:4467.837 207.416 596.836********-137.9501841.921
 Approx polarizability:******** 622.200 579.772********-276.2573829.936

                      1                      2                      3
                      A                      A                      A
 Frequencies --     35.3811                52.2308                55.0142
 Red. masses --      3.8531                 1.8008                 1.9362
 Frc consts  --      0.0028                 0.0029                 0.0035
 IR Inten    --      7.4030                 0.1994                 0.0000

                      4                      5                      6
                      A                      A                      A
 Frequencies --     79.9897                97.2398               139.1944
 Red. masses --      3.2713                 2.8808                 7.2732
 Frc consts  --      0.0123                 0.0160                 0.0830
 IR Inten    --      0.0000                 9.6830                34.6715

                      7                      8                      9
                      A                      A                      A
 Frequencies --    142.1257               201.6872               248.1326
 Red. masses --      3.7054                 4.8835                 1.2995
 Frc consts  --      0.0441                 0.1170                 0.0471
 IR Inten    --      0.0000                30.0436                 0.0000

                     10                     11                     12
                      A                      A                      A
 Frequencies --    251.7585               257.3692               271.5590
 Red. masses --      1.2057                 3.9682                 4.0305
 Frc consts  --      0.0450                 0.1549                 0.1751
 IR Inten    --     12.6655                 0.0000                 0.0000

                     13                     14                     15
                      A                      A                      A
 Frequencies --    318.1860               358.1906               362.0094
 Red. masses --      4.9003                 3.7104                 3.3516
 Frc consts  --      0.2923                 0.2805                 0.2588
 IR Inten    --    168.8433                 0.0001                17.3874

                     16                     17                     18
                      A                      A                      A
 Frequencies --    429.3932               437.3954               467.5435
 Red. masses --      8.4506                 3.0867                11.4835
 Frc consts  --      0.9180                 0.3479                 1.4790
 IR Inten    --      0.0000                12.1579                 0.0000

                     19                     20                     21
                      A                      A                      A
 Frequencies --    481.8517               554.4577               655.3174
 Red. masses --      4.7139                 5.0345                 4.2184
 Frc consts  --      0.6448                 0.9119                 1.0673
 IR Inten    --     45.5927                 0.0000                 0.0000

                     22                     23                     24
                      A                      A                      A
 Frequencies --    693.6136               717.1850               729.6034
 Red. masses --      3.3608                 2.2207                 5.8804
 Frc consts  --      0.9526                 0.6730                 1.8443
 IR Inten    --    133.9756                 0.0000                12.2973

                     25                     26                     27
                      A                      A                      A
 Frequencies --    740.9988               795.0391               796.8479
 Red. masses --      1.8674                 1.3300                 1.2038
 Frc consts  --      0.6041                 0.4953                 0.4503
 IR Inten    --      0.0000                58.4542                 0.0034

                     28                     29                     30
                      A                      A                      A
 Frequencies --    803.8178               811.4567               819.7192
 Red. masses --      1.3223                 1.7853                 2.5531
 Frc consts  --      0.5034                 0.6926                 1.0108
 IR Inten    --    100.7649                 0.0007                 0.0005

                     31                     32                     33
                      A                      A                      A
 Frequencies --    820.8861               904.8905               917.3848
 Red. masses --      1.6969                 1.6276                 1.5997
 Frc consts  --      0.6737                 0.7852                 0.7932
 IR Inten    --     19.0560                30.3573                 0.0000

                     34                     35                     36
                      A                      A                      A
 Frequencies --    929.8336              1053.6271              1063.9412
 Red. masses --      2.3826                 2.8674                 2.4528
 Frc consts  --      1.2137                 1.8755                 1.6359
 IR Inten    --    150.7012                 0.0000                29.3555

                     37                     38                     39
                      A                      A                      A
 Frequencies --   1111.1386              1115.6467              1151.0798
 Red. masses --      1.8249                 1.9841                 1.9859
 Frc consts  --      1.3275                 1.4550                 1.5503
 IR Inten    --      0.0025               195.1949                57.6268

                     40                     41                     42
                      A                      A                      A
 Frequencies --   1164.3515              1199.5690              1204.4467
 Red. masses --      1.8196                 4.3246                 3.5299
 Frc consts  --      1.4534                 3.6665                 3.0171
 IR Inten    --      0.0001                85.8179                 0.0012

                     43                     44                     45
                      A                      A                      A
 Frequencies --   1224.5595              1241.0349              1277.1663
 Red. masses --      4.3715                 1.4803                 1.6853
 Frc consts  --      3.8623                 1.3433                 1.6196
 IR Inten    --    342.8114                 0.0000               288.0153

                     46                     47                     48
                      A                      A                      A
 Frequencies --   1285.5281              1293.0150              1339.4329
 Red. masses --      1.1928                 1.2858                 2.3250
 Frc consts  --      1.1614                 1.2666                 2.4576
 IR Inten    --      0.0001                46.3296                 0.0001

                     49                     50                     51
                      A                      A                      A
 Frequencies --   1375.9220              1379.0073              1389.2711
 Red. masses --      1.3167                 1.5754                 1.3309
 Frc consts  --      1.4686                 1.7651                 1.5134
 IR Inten    --    166.8458                 0.0000              2355.6404

                     52                     53                     54
                      A                      A                      A
 Frequencies --   1400.6305              1417.6892              1467.9181
 Red. masses --      1.9547                 2.3313                 1.1098
 Frc consts  --      2.2593                 2.7607                 1.4089
 IR Inten    --      0.0001                 0.0000               444.0978

                     55                     56                     57
                      A                      A                      A
 Frequencies --   1470.2757              1483.6705              1489.7310
 Red. masses --      1.0586                 2.6503                 1.0487
 Frc consts  --      1.3483                 3.4373                 1.3713
 IR Inten    --      0.0003               628.2726                 1.2044

                     58                     59                     60
                      A                      A                      A
 Frequencies --   1489.8538              1502.9722              1509.7417
 Red. masses --      1.2449                 1.9358                 1.0896
 Frc consts  --      1.6281                 2.5764                 1.4632
 IR Inten    --    446.1898               373.4423                 0.0051

                     61                     62                     63
                      A                      A                      A
 Frequencies --   1511.0263              1529.5302              1536.9803
 Red. masses --      1.2127                 2.3891                 1.9348
 Frc consts  --      1.6313                 3.2931                 2.6929
 IR Inten    --    194.6876               367.2246                 0.0002

                     64                     65                     66
                      A                      A                      A
 Frequencies --   1609.5843              2840.9132              2841.0351
 Red. masses --      6.6429                 1.0748                 1.0748
 Frc consts  --     10.1400                 5.1108                 5.1112
 IR Inten    --      0.0000               196.2826               297.9388

                     67                     68                     69
                      A                      A                      A
 Frequencies --   2990.3436              2990.3840              3042.8858
 Red. masses --      1.0366                 1.0367                 1.0959
 Frc consts  --      5.4616                 5.4619                 5.9784
 IR Inten    --      3.5326               317.1117                84.9346

                     70                     71                     72
                      A                      A                      A
 Frequencies --   3043.0734              3058.4595              3058.5123
 Red. masses --      1.0959                 1.0903                 1.0902
 Frc consts  --      5.9790                 6.0090                 6.0086
 IR Inten    --      0.0130                 0.2522               238.3091

                     73                     74                     75
                      A                      A                      A
 Frequencies --   3069.5574              3069.5750              3135.9741
 Red. masses --      1.0981                 1.0981                 1.0870
 Frc consts  --      6.0960                 6.0960                 6.2985
 IR Inten    --     20.3131                 0.0253                82.0304

                     76                     77                     78
                      A                      A                      A
 Frequencies --   3137.7202              3455.5175              3455.6472
 Red. masses --      1.0875                 1.0739                 1.0742
 Frc consts  --      6.3082                 7.5554                 7.5574
 IR Inten    --      0.0008                 1.9325               197.2235

 - Thermochemistry -
 -------------------
 Temperature   298.150 Kelvin.  Pressure   1.00000 Atm.
 Atom     1 has atomic number  6 and mass  12.00000

 Molecular mass:   194.10553 amu.
 Principal axes and moments of inertia in atomic units:
                           1         2         3
     Eigenvalues --  1126.653145686.096486724.38108
           X            0.82428   0.43796  -0.35882
           Y           -0.01112   0.64617   0.76312
           Z           -0.56607   0.62503  -0.53749
 This molecule is an asymmetric top.
 Rotational symmetry number  1.
 Warning -- assumption of classical behavior for rotation
           may cause significant error
 Rotational temperatures (Kelvin)      0.07688     0.01523     0.01288
 Rotational constants (GHZ):           1.60186     0.31740     0.26839
 Zero-point vibrational energy     597267.0 (Joules/Mol)
                                  142.75024 (Kcal/Mol)
 Warning -- explicit consideration of  20 degrees of freedom as
           vibrations may cause significant error
 Vibrational temperatures:     50.91    75.15    79.15   115.09   139.91
          (Kelvin)            200.27   204.49   290.18   357.01   362.22
                              370.30   390.71   457.80   515.36   520.85
                              617.80   629.31   672.69   693.28   797.74
                              942.86   997.96  1031.87  1049.74  1066.13
                             1143.88  1146.49  1156.51  1167.51  1179.39
                             1181.07  1301.94  1319.91  1337.82  1515.93
                             1530.77  1598.68  1605.17  1656.15  1675.24
                             1725.91  1732.93  1761.87  1785.57  1837.56
                             1849.59  1860.36  1927.15  1979.64  1984.08
                             1998.85  2015.19  2039.74  2112.01  2115.40
                             2134.67  2143.39  2143.57  2162.44  2172.18
                             2174.03  2200.65  2211.37  2315.83  4087.44
                             4087.62  4302.44  4302.50  4378.03  4378.30
                             4400.44  4400.52  4416.41  4416.43  4511.97
                             4514.48  4971.72  4971.91

 Zero-point correction=                           0.227487 (Hartree/Particle)
 Thermal correction to Energy=                    0.241971
 Thermal correction to Enthalpy=                  0.242916
 Thermal correction to Gibbs Free Energy=         0.185087
 Sum of electronic and zero-point Energies=           -649.359442
 Sum of electronic and thermal Energies=              -649.344958
 Sum of electronic and thermal Enthalpies=            -649.344014
 Sum of electronic and thermal Free Energies=         -649.401842

                     E (Thermal)             CV                S
                      KCal/Mol        Cal/Mol-Kelvin    Cal/Mol-Kelvin
 Total                  151.839             53.462            121.711
 Electronic               0.000              0.000              0.000
 Translational            0.889              2.981             41.695
 Rotational               0.889              2.981             32.133
 Vibrational            150.062             47.500             47.883
 Vibration     1          0.594              1.982              5.502
 Vibration     2          0.596              1.977              4.731
 Vibration     3          0.596              1.976              4.628
 Vibration     4          0.600              1.963              3.891
 Vibration     5          0.603              1.951              3.509
 Vibration     6          0.615              1.914              2.815
 Vibration     7          0.616              1.911              2.775
 Vibration     8          0.639              1.837              2.118
 Vibration     9          0.662              1.766              1.744
 Vibration    10          0.664              1.760              1.718
 Vibration    11          0.667              1.750              1.680
 Vibration    12          0.675              1.726              1.586
 Vibration    13          0.705              1.639              1.319
 Vibration    14          0.733              1.558              1.130
 Vibration    15          0.736              1.551              1.113
 Vibration    16          0.791              1.406              0.861
 Vibration    17          0.798              1.389              0.835
 Vibration    18          0.825              1.322              0.744
 Vibration    19          0.838              1.290              0.705
 Vibration    20          0.910              1.130              0.535

                           ! Non-Optimized Parameters !
 Normal termination of Gaussian 16 at Wed Dec 20 03:36:39 2023.
