 Gaussian 16, Revision A.03,
 Gaussian 16:  ES64L-G16RevA.03 25-Dec-2016

 ----------------------------------------------------------------------
 #P UB3LYP/6-311++G(d,p) nosym opt freq SCRF=(PCM,Solvent=n,n-DiMethylF
 ormamide)
 ----------------------------------------------------------------------

 -------
 Reduced
 -------
 Symbolic Z-matrix:
 Charge = -2 Multiplicity = 1

 SCF Done:  E(UB3LYP) =  -460.472705847     A.U. after   16 cycles
 SCF Done:  E(UB3LYP) =  -460.473699617     A.U. after   14 cycles
 SCF Done:  E(UB3LYP) =  -460.473822891     A.U. after   13 cycles
 SCF Done:  E(UB3LYP) =  -460.473874596     A.U. after   12 cycles
 SCF Done:  E(UB3LYP) =  -460.473896298     A.U. after   12 cycles
 SCF Done:  E(UB3LYP) =  -460.473921693     A.U. after   11 cycles
 SCF Done:  E(UB3LYP) =  -460.473943767     A.U. after   12 cycles
 SCF Done:  E(UB3LYP) =  -460.473951144     A.U. after   11 cycles
 SCF Done:  E(UB3LYP) =  -460.473955509     A.U. after   11 cycles
 SCF Done:  E(UB3LYP) =  -460.473955757     A.U. after   10 cycles
 SCF Done:  E(UB3LYP) =  -460.473955892     A.U. after    8 cycles
 SCF Done:  E(UB3LYP) =  -460.473956029     A.U. after    9 cycles
 Optimization completed.
    -- Stationary point found.
 Normal termination of Gaussian 16 at Sat Feb 10 10:27:51 2024.

 ----------------------------------------------------------------------
 #P Geom=AllCheck Guess=TCheck SCRF=Check GenChk UB3LYP/6-311++G(d,p) F
 req
 ----------------------------------------------------------------------

 Structure from the checkpoint file:  "037-an.chk"
 -------
 Reduced
 -------
 Charge = -2 Multiplicity = 1

                          Input orientation:
 ---------------------------------------------------------------------
 Center     Atomic      Atomic             Coordinates (Angstroms)
 Number     Number       Type             X           Y           Z
 ---------------------------------------------------------------------
      1          6           0       -1.596555   -1.370829   -0.138915
      2          6           0       -0.245791   -0.688062   -0.107900
      3          6           0       -0.174095    0.700033    0.141736
      4          6           0       -1.447160    1.486958    0.366892
      5          6           0        1.074045    1.407548    0.192019
      6          8           0        1.158088    2.705510    0.433718
      7          6           0        2.220421    0.604974   -0.039511
      8          6           0        2.149288   -0.770641   -0.289532
      9          6           0        0.925165   -1.486022   -0.339293
     10          8           0        0.877970   -2.786168   -0.581334
     11          1           0       -1.461072   -2.445728   -0.262099
     12          1           0       -2.227684   -1.013647   -0.964585
     13          1           0       -2.171747   -1.198300    0.779730
     14          1           0       -1.982315    1.170624    1.273020
     15          1           0       -2.158659    1.375858   -0.461457
     16          1           0       -1.203746    2.544698    0.472737
     17          1           0        3.194571    1.093305   -0.016276
     18          1           0        3.069271   -1.330111   -0.458950
 ---------------------------------------------------------------------

 SCF Done:  E(UB3LYP) =  -460.473956029     A.U. after    1 cycles

 Alpha  occ. eigenvalues --  -19.00328 -19.00318 -10.15571 -10.15557 -10.13169
 Alpha  occ. eigenvalues --  -10.13136 -10.12136 -10.12084 -10.11258 -10.11206
 Alpha  occ. eigenvalues --   -0.90712  -0.90294  -0.77838  -0.72549  -0.69115
 Alpha  occ. eigenvalues --   -0.62476  -0.62138  -0.52718  -0.50507  -0.43898
 Alpha  occ. eigenvalues --   -0.41295  -0.40201  -0.38579  -0.36813  -0.35604
 Alpha  occ. eigenvalues --   -0.35453  -0.34905  -0.33974  -0.32949  -0.29791
 Alpha  occ. eigenvalues --   -0.29712  -0.29195  -0.21126  -0.19330  -0.18551
 Alpha  occ. eigenvalues --   -0.18245  -0.11054
 Alpha virt. eigenvalues --    0.00094   0.01419   0.01916   0.03029   0.03680
 Alpha virt. eigenvalues --    0.03760   0.04400   0.05459   0.06512   0.06776
 Alpha virt. eigenvalues --    0.06928   0.07882   0.09209   0.09465   0.09715

  Beta  occ. eigenvalues --  -19.00328 -19.00318 -10.15571 -10.15557 -10.13169
  Beta  occ. eigenvalues --  -10.13136 -10.12136 -10.12084 -10.11258 -10.11206
  Beta  occ. eigenvalues --   -0.90712  -0.90294  -0.77838  -0.72549  -0.69115
  Beta  occ. eigenvalues --   -0.62476  -0.62138  -0.52718  -0.50507  -0.43898
  Beta  occ. eigenvalues --   -0.41295  -0.40201  -0.38579  -0.36813  -0.35604
  Beta  occ. eigenvalues --   -0.35453  -0.34905  -0.33974  -0.32949  -0.29791
  Beta  occ. eigenvalues --   -0.29712  -0.29195  -0.21126  -0.19330  -0.18551
  Beta  occ. eigenvalues --   -0.18245  -0.11054
  Beta virt. eigenvalues --    0.00094   0.01419   0.01916   0.03029   0.03680
  Beta virt. eigenvalues --    0.03760   0.04400   0.05459   0.06512   0.06776
  Beta virt. eigenvalues --    0.06928   0.07882   0.09209   0.09465   0.09715

 Mulliken charges and spin densities:
               1          2
     1  C   -0.568258   0.000000
     2  C    0.595726  -0.000000
     3  C    0.605340   0.000000
     4  C   -0.568188  -0.000000
     5  C   -0.744839   0.000000
     6  O   -0.774036  -0.000000
     7  C   -0.052032  -0.000000
     8  C   -0.049629   0.000000
     9  C   -0.744596  -0.000000
    10  O   -0.775503  -0.000000
    11  H    0.168539   0.000000
    12  H    0.127035  -0.000000
    13  H    0.121942  -0.000000
    14  H    0.126311   0.000000
    15  H    0.122091   0.000000
    16  H    0.169222  -0.000000
    17  H    0.120520  -0.000000
    18  H    0.120354   0.000000
 Sum of Mulliken charges =  -2.00000  -0.00000

 Dipole moment (field-independent basis, Debye):
    X=            -10.0619    Y=              0.4121    Z=              0.7345  Tot=             10.0971
 Quadrupole moment (field-independent basis, Debye-Ang):
   XX=            -82.1698   YY=           -132.9212   ZZ=            -71.7072
   XY=             -2.7203   XZ=              0.3169   YZ=            -11.7758

  Exact polarizability: 202.106   1.979 216.263  -5.742  19.902 115.608
 Approx polarizability: 214.770   2.338 233.936  -6.051  21.787 123.698

                      1                      2                      3
                      A                      A                      A
 Frequencies --     82.4234               131.0708               138.7172
 Red. masses --      1.0599                 4.9271                 1.1331
 Frc consts  --      0.0042                 0.0499                 0.0128
 IR Inten    --      0.2389                25.2176                 2.8916

                      4                      5                      6
                      A                      A                      A
 Frequencies --    144.4730               250.7437               319.6567
 Red. masses --      2.8298                 3.0966                 2.8929
 Frc consts  --      0.0348                 0.1147                 0.1742
 IR Inten    --      1.9232                 3.2489                 9.5517

                      7                      8                      9
                      A                      A                      A
 Frequencies --    328.1716               366.1451               370.1250
 Red. masses --      3.0919                 6.7585                 9.1619
 Frc consts  --      0.1962                 0.5338                 0.7395
 IR Inten    --      9.3609                 0.6062                15.9501

                     10                     11                     12
                      A                      A                      A
 Frequencies --    483.5469               484.9268               496.1866
 Red. masses --      5.1479                 9.8482                 3.5252
 Frc consts  --      0.7092                 1.3645                 0.5114
 IR Inten    --     14.2635                 1.9597                 0.0223

                     13                     14                     15
                      A                      A                      A
 Frequencies --    596.3777               617.0130               649.2162
 Red. masses --      3.8191                 2.1043                 5.2869
 Frc consts  --      0.8003                 0.4720                 1.3129
 IR Inten    --      0.1130                13.1325                 3.1548

                     16                     17                     18
                      A                      A                      A
 Frequencies --    745.0981               763.8120               802.9647
 Red. masses --      4.0505                 7.4733                 2.0532
 Frc consts  --      1.3249                 2.5688                 0.7800
 IR Inten    --      0.1393               191.9312                79.2652

                     19                     20                     21
                      A                      A                      A
 Frequencies --    850.1534               879.4843               959.7465
 Red. masses --      2.3184                 1.3683                 1.6497
 Frc consts  --      0.9873                 0.6236                 0.8953
 IR Inten    --     37.1260                 0.1216                 0.0273

                     22                     23                     24
                      A                      A                      A
 Frequencies --   1026.4810              1044.4246              1051.5564
 Red. masses --      1.4120                 2.3528                 1.5189
 Frc consts  --      0.8766                 1.5122                 0.9896
 IR Inten    --      0.6610                17.3279                 0.9752

                     25                     26                     27
                      A                      A                      A
 Frequencies --   1086.6240              1150.4309              1184.8767
 Red. masses --      2.4019                 1.5018                 2.3915
 Frc consts  --      1.6709                 1.1711                 1.9782
 IR Inten    --    303.7584                12.6338                24.9697

                     28                     29                     30
                      A                      A                      A
 Frequencies --   1203.2993              1274.7441              1295.3046
 Red. masses --      6.3863                 3.4805                 8.5320
 Frc consts  --      5.4482                 3.3322                 8.4342
 IR Inten    --    221.0650              1156.1140                 3.4990

                     31                     32                     33
                      A                      A                      A
 Frequencies --   1373.9489              1381.8063              1414.9238
 Red. masses --      1.3229                 1.2855                 2.6877
 Frc consts  --      1.4714                 1.4461                 3.1703
 IR Inten    --     12.8763                 1.7039               735.0470

                     34                     35                     36
                      A                      A                      A
 Frequencies --   1419.9260              1470.0555              1473.3482
 Red. masses --      4.5847                 1.1969                 1.0825
 Frc consts  --      5.4462                 1.5240                 1.3845
 IR Inten    --     86.4297               243.6219                36.7154

                     37                     38                     39
                      A                      A                      A
 Frequencies --   1483.3499              1495.6055              1520.6570
 Red. masses --      1.0514                 1.0518                 3.9397
 Frc consts  --      1.3630                 1.3862                 5.3676
 IR Inten    --      0.9418                24.6899                24.3910

                     40                     41                     42
                      A                      A                      A
 Frequencies --   1596.0092              2976.4815              2978.3371
 Red. masses --      6.8981                 1.0456                 1.0463
 Frc consts  --     10.3526                 5.4579                 5.4684
 IR Inten    --      6.8930               103.6993               224.1335

                     43                     44                     45
                      A                      A                      A
 Frequencies --   3006.0607              3009.0886              3081.2151
 Red. masses --      1.0953                 1.0944                 1.0839
 Frc consts  --      5.8313                 5.8386                 6.0629
 IR Inten    --    134.8070                38.4077                89.5321

                     46                     47                     48
                      A                      A                      A
 Frequencies --   3101.4773              3105.7257              3106.7475
 Red. masses --      1.0926                 1.0925                 1.0919
 Frc consts  --      6.1923                 6.2088                 6.2092
 IR Inten    --     25.0415               117.3915                42.0514

 - Thermochemistry -
 -------------------
 Temperature   298.150 Kelvin.  Pressure   1.00000 Atm.
 Atom     1 has atomic number  6 and mass  12.00000

 Molecular mass:   136.05243 amu.
 Principal axes and moments of inertia in atomic units:
                           1         2         3
     Eigenvalues --   879.272911433.826872290.90918
           X            0.04974   0.99654   0.06653
           Y            0.98241  -0.03681  -0.18306
           Z            0.17998  -0.07447   0.98085
 This molecule is an asymmetric top.
 Rotational symmetry number  1.
 Warning -- assumption of classical behavior for rotation
           may cause significant error
 Rotational temperatures (Kelvin)      0.09851     0.06041     0.03781
 Rotational constants (GHZ):           2.05254     1.25869     0.78778
 Zero-point vibrational energy     357519.3 (Joules/Mol)
                                   85.44916 (Kcal/Mol)
 Warning -- explicit consideration of  14 degrees of freedom as
           vibrations may cause significant error
 Vibrational temperatures:    118.59   188.58   199.58   207.86   360.76
          (Kelvin)            459.91   472.17   526.80   532.53   695.72
                              697.70   713.90   858.05   887.74   934.08
                             1072.03  1098.96  1155.29  1223.18  1265.38
                             1380.86  1476.88  1502.69  1512.96  1563.41
                             1655.21  1704.77  1731.28  1834.07  1863.65
                             1976.81  1988.11  2035.76  2042.96  2115.08
                             2119.82  2134.21  2151.84  2187.89  2296.30
                             4282.49  4285.16  4325.05  4329.41  4433.18
                             4462.33  4468.45  4469.92

 Zero-point correction=                           0.136172 (Hartree/Particle)
 Thermal correction to Energy=                    0.145552
 Thermal correction to Enthalpy=                  0.146496
 Thermal correction to Gibbs Free Energy=         0.101843
 Sum of electronic and zero-point Energies=           -460.337784
 Sum of electronic and thermal Energies=              -460.328404
 Sum of electronic and thermal Enthalpies=            -460.327460
 Sum of electronic and thermal Free Energies=         -460.372113

                     E (Thermal)             CV                S
                      KCal/Mol        Cal/Mol-Kelvin    Cal/Mol-Kelvin
 Total                   91.335             35.318             93.980
 Electronic               0.000              0.000              0.000
 Translational            0.889              2.981             40.636
 Rotational               0.889              2.981             29.447
 Vibrational             89.558             29.357             23.897
 Vibration     1          0.600              1.961              3.832
 Vibration     2          0.612              1.922              2.930
 Vibration     3          0.614              1.915              2.821
 Vibration     4          0.616              1.909              2.744
 Vibration     5          0.663              1.762              1.725
 Vibration     6          0.706              1.636              1.312
 Vibration     7          0.711              1.619              1.269
 Vibration     8          0.739              1.542              1.096
 Vibration     9          0.742              1.534              1.079
 Vibration    10          0.840              1.287              0.701
 Vibration    11          0.841              1.283              0.697
 Vibration    12          0.852              1.258              0.668
 Vibration    13          0.954              1.039              0.456
 Vibration    14          0.977              0.996              0.421

                           ! Non-Optimized Parameters !
 Normal termination of Gaussian 16 at Sat Feb 10 10:39:39 2024.
