 Q-Chem 5.4, Q-Chem, Inc., Pleasanton, CA (2021)
 Q-Chem 5.4.0 for Intel X86 EM64T Linux

User input:
--------------------------------------------------------------
$molecule
-1 2
N                 -4.7144670000      0.3826640000      0.3399510000
C                 -3.7380330000     -0.1657990000      0.6517600000
C                 -2.5440450000     -0.8227960000      1.0218560000
C                 -2.6658100000     -1.9054550000      1.9202850000
N                 -2.7538970000     -2.7983010000      2.6595550000
C                 -1.2736570000     -0.4118420000      0.5116890000
C                 -1.1504710000      0.6799800000     -0.3939260000
C                  0.0696780000      1.0745770000     -0.8840660000
C                  1.2736630000      0.4119470000     -0.5115790000
C                  1.1504980000     -0.6798260000      0.3941220000
C                 -0.0696480000     -1.0743950000      0.8843000000
C                  2.5440060000      0.8227040000     -1.0219560000
C                  3.7379370000      0.1654310000     -0.6522270000
N                  4.7143520000     -0.3832230000     -0.3406840000
C                  2.6658550000      1.9054790000     -1.9202560000
N                  2.7539920000      2.7983460000     -2.6594920000
H                 -2.0448220000      1.2100460000     -0.7014100000
H                  0.1222940000      1.9109900000     -1.5718340000
H                  2.0448500000     -1.2098630000      0.7016750000
H                 -0.1222760000     -1.9106660000      1.5722360000
$end
$rem
MAX_SCF_CYCLES=200
BASIS  =  6-311++G(d,p)
GUI  =  2
JOB_TYPE  =  SP
METHOD  =  B3LYP
SOLVENT_METHOD = PCM
$end
$pcm
theory = CPCM
$end
$solvent
dielectric 37.219
opticaldielectric 1.43
$end

--------------------------------------------------------------

             Standard Nuclear Orientation (Angstroms)
    I     Atom           X                Y                Z
 ----------------------------------------------------------------
    1      N      -4.7144670000     0.3826640000     0.3399510000
    2      C      -3.7380330000    -0.1657990000     0.6517600000
    3      C      -2.5440450000    -0.8227960000     1.0218560000
    4      C      -2.6658100000    -1.9054550000     1.9202850000
    5      N      -2.7538970000    -2.7983010000     2.6595550000
    6      C      -1.2736570000    -0.4118420000     0.5116890000
    7      C      -1.1504710000     0.6799800000    -0.3939260000
    8      C       0.0696780000     1.0745770000    -0.8840660000
    9      C       1.2736630000     0.4119470000    -0.5115790000
   10      C       1.1504980000    -0.6798260000     0.3941220000
   11      C      -0.0696480000    -1.0743950000     0.8843000000
   12      C       2.5440060000     0.8227040000    -1.0219560000
   13      C       3.7379370000     0.1654310000    -0.6522270000
   14      N       4.7143520000    -0.3832230000    -0.3406840000
   15      C       2.6658550000     1.9054790000    -1.9202560000
   16      N       2.7539920000     2.7983460000    -2.6594920000
   17      H      -2.0448220000     1.2100460000    -0.7014100000
   18      H       0.1222940000     1.9109900000    -1.5718340000
   19      H       2.0448500000    -1.2098630000     0.7016750000
   20      H      -0.1222760000    -1.9106660000     1.5722360000
 ----------------------------------------------------------------

    8    -678.9566183223      4.77e-06  Convergence criterion met
 Total energy in the final basis set =     -678.9566183223

                    Orbital Energies (a.u.)
 --------------------------------------------------------------

 Alpha MOs
 -- Occupied --
-14.3212 -14.3212 -14.3212 -14.3212 -10.2319 -10.2319 -10.2265 -10.2265
-10.2265 -10.2265 -10.2175 -10.2175 -10.1910 -10.1910 -10.1904 -10.1904
 -0.9308  -0.9297  -0.9179  -0.9179  -0.8867  -0.8415  -0.7976  -0.7685
 -0.7293  -0.6445  -0.6304  -0.5955  -0.5620  -0.5511  -0.5183  -0.4600
 -0.4563  -0.4380  -0.4319  -0.4206  -0.4055  -0.3926  -0.3905  -0.3884
 -0.3862  -0.3788  -0.3610  -0.3609  -0.3598  -0.3578  -0.3546  -0.3467
 -0.3436  -0.3132  -0.2790  -0.2449  -0.1893

 Beta MOs
 -- Occupied --
-14.3193 -14.3192 -14.3192 -14.3192 -10.2284 -10.2284 -10.2272 -10.2272
-10.2271 -10.2271 -10.2164 -10.2164 -10.1904 -10.1904 -10.1897 -10.1897
 -0.9275  -0.9264  -0.9150  -0.9149  -0.8828  -0.8354  -0.7906  -0.7668
 -0.7223  -0.6419  -0.6284  -0.5931  -0.5593  -0.5500  -0.5163  -0.4585
 -0.4546  -0.4375  -0.4207  -0.4088  -0.4035  -0.3896  -0.3880  -0.3855
 -0.3833  -0.3695  -0.3586  -0.3568  -0.3538  -0.3536  -0.3536  -0.3456
 -0.3425  -0.2985  -0.2745  -0.2196

          Ground-State Mulliken Net Atomic Charges

     Atom                 Charge (a.u.)    Spin (a.u.)
  --------------------------------------------------------
      1 N                    -0.322156       0.103391
      2 C                    -1.397605      -0.064660
      3 C                     2.360674       0.289954
      4 C                    -1.397243      -0.064687
      5 N                    -0.322261       0.103412
      6 C                     1.584178       0.125559
      7 C                    -0.672913       0.008542
      8 C                    -0.672042       0.008553
      9 C                     1.584864       0.125536
     10 C                    -0.673012       0.008530
     11 C                    -0.672467       0.008538
     12 C                     2.360351       0.289966
     13 C                    -1.397554      -0.064674
     14 N                    -0.322156       0.103399
     15 C                    -1.397090      -0.064677
     16 N                    -0.322256       0.103408
     17 H                     0.169729      -0.005025
     18 H                     0.169625      -0.005019
     19 H                     0.169725      -0.005025
     20 H                     0.169609      -0.005019
  --------------------------------------------------------
  Sum of atomic charges =    -1.000000

                    Cartesian Multipole Moments
 -----------------------------------------------------------------
    Charge (ESU x 10^10)
                -4.8032
    Dipole Moment (Debye)
         X       0.0001      Y       0.0011      Z       0.0013
       Tot       0.0017
    Quadrupole Moments (Debye-Ang)
        XX    -189.2263     XY     -17.3387     YY    -122.1417
        XZ      27.0846     YZ      24.1191     ZZ    -118.8661

 Total job time:  33.67s(wall), 228.45s(cpu)
        *  Thank you very much for using Q-Chem.  Have a nice day.  *
