 Gaussian 16, Revision A.03,
 Gaussian 16:  ES64L-G16RevA.03 25-Dec-2016

 ----------------------------------------------------------------
 #P UB3LYP/6-311++G(d,p) SCRF=(PCM,Solvent=n,n-DiMethylFormamide)
 ----------------------------------------------------------------

 ------------------
 Quinone PCM in DMF
 ------------------
 Symbolic Z-matrix:
 Charge =  0 Multiplicity = 1

                         Standard orientation:
 ---------------------------------------------------------------------
 Center     Atomic      Atomic             Coordinates (Angstroms)
 Number     Number       Type             X           Y           Z
 ---------------------------------------------------------------------
      1          8           0        4.869846    0.143327    0.000167
      2          6           0        3.586180   -0.286803    0.000091
      3          6           0        3.299775   -1.644788   -0.000102
      4          6           0        1.976375   -2.085344   -0.000220
      5          6           0        0.924258   -1.176851   -0.000222
      6          6           0       -0.474831   -1.688107   -0.000421
      7          8           0       -0.688313   -2.889499   -0.000016
      8          6           0       -1.577000   -0.679646   -0.000176
      9          6           0       -2.921439   -1.074244    0.000137
     10          8           0       -3.259559   -2.387096    0.000309
     11          6           0       -3.934810   -0.093940    0.000298
     12          6           0       -3.643928    1.248793    0.000142
     13          6           0       -2.307527    1.680502   -0.000148
     14          8           0       -2.096627    3.004022   -0.000299
     15          6           0       -1.271948    0.718753   -0.000244
     16          6           0        0.114749    1.180737   -0.000228
     17          8           0        0.379266    2.414883   -0.000034
     18          6           0        1.199664    0.210002   -0.000061
     19          6           0        2.535016    0.651440    0.000193
     20          8           0        2.907465    1.948126    0.000455
     21          1           0        4.867316    1.111378    0.000039
     22          1           0        4.123912   -2.348138   -0.000172
     23          1           0        1.745025   -3.142472   -0.000349
     24          1           0       -4.220147   -2.466344    0.000823
     25          1           0       -4.972578   -0.415926    0.000528
     26          1           0       -4.427236    1.996442    0.000254
     27          1           0       -1.120671    3.145108   -0.000533
     28          1           0        2.080560    2.486810    0.000513
 ---------------------------------------------------------------------

 SCF Done:  E(UB3LYP) =  -989.974738844     A.U. after   14 cycles

 The electronic state is 1-A.
 Alpha  occ. eigenvalues --  -19.17735 -19.17556 -19.17518 -19.16669 -19.15121
 Alpha  occ. eigenvalues --  -19.12049 -10.29805 -10.27998 -10.27098 -10.27039
 Alpha  occ. eigenvalues --  -10.26938 -10.26317 -10.21674 -10.21459 -10.21457
 Alpha  occ. eigenvalues --  -10.20984 -10.20576 -10.20426 -10.20081 -10.19746
 Alpha  occ. eigenvalues --   -1.11009  -1.09650  -1.09205  -1.08069  -1.06153
 Alpha  occ. eigenvalues --   -1.05729  -0.89650  -0.88082  -0.82096  -0.78350
 Alpha  occ. eigenvalues --   -0.77531  -0.76896  -0.70354  -0.68361  -0.67874
 Alpha  occ. eigenvalues --   -0.63668  -0.62623  -0.59427  -0.58594  -0.56738
 Alpha  occ. eigenvalues --   -0.55708  -0.53250  -0.52551  -0.51280  -0.49616
 Alpha  occ. eigenvalues --   -0.48390  -0.47882  -0.46895  -0.46365  -0.45733
 Alpha  occ. eigenvalues --   -0.44964  -0.43696  -0.43613  -0.42643  -0.42229
 Alpha  occ. eigenvalues --   -0.41844  -0.40880  -0.40327  -0.39345  -0.38941
 Alpha  occ. eigenvalues --   -0.38637  -0.38514  -0.35176  -0.33851  -0.30413
 Alpha  occ. eigenvalues --   -0.29686  -0.27491  -0.27026  -0.24532  -0.23639
 Alpha virt. eigenvalues --   -0.12318  -0.06641  -0.04065  -0.01164  -0.00958
 Alpha virt. eigenvalues --   -0.00490   0.00587   0.01068   0.01645   0.03034
 Alpha virt. eigenvalues --    0.03261   0.03762   0.04085   0.04211   0.04350

  Beta  occ. eigenvalues --  -19.17735 -19.17556 -19.17518 -19.16669 -19.15121
  Beta  occ. eigenvalues --  -19.12049 -10.29805 -10.27998 -10.27098 -10.27039
  Beta  occ. eigenvalues --  -10.26938 -10.26317 -10.21674 -10.21459 -10.21457
  Beta  occ. eigenvalues --  -10.20984 -10.20576 -10.20426 -10.20081 -10.19746
  Beta  occ. eigenvalues --   -1.11009  -1.09650  -1.09205  -1.08069  -1.06153
  Beta  occ. eigenvalues --   -1.05729  -0.89650  -0.88082  -0.82096  -0.78350
  Beta  occ. eigenvalues --   -0.77531  -0.76896  -0.70354  -0.68361  -0.67874
  Beta  occ. eigenvalues --   -0.63668  -0.62623  -0.59427  -0.58594  -0.56738
  Beta  occ. eigenvalues --   -0.55708  -0.53250  -0.52551  -0.51280  -0.49616
  Beta  occ. eigenvalues --   -0.48390  -0.47882  -0.46895  -0.46365  -0.45733
  Beta  occ. eigenvalues --   -0.44964  -0.43696  -0.43613  -0.42643  -0.42229
  Beta  occ. eigenvalues --   -0.41844  -0.40880  -0.40327  -0.39345  -0.38941
  Beta  occ. eigenvalues --   -0.38637  -0.38514  -0.35176  -0.33851  -0.30413
  Beta  occ. eigenvalues --   -0.29686  -0.27491  -0.27026  -0.24532  -0.23639
  Beta virt. eigenvalues --   -0.12318  -0.06641  -0.04065  -0.01164  -0.00958
  Beta virt. eigenvalues --   -0.00490   0.00587   0.01068   0.01645   0.03034
  Beta virt. eigenvalues --    0.03261   0.03762   0.04085   0.04211   0.04350

 Mulliken charges and spin densities:
               1          2
     1  O   -0.266357   0.000000
     2  C   -0.320263  -0.000000
     3  C    0.030567   0.000000
     4  C    0.027934  -0.000000
     5  C    0.294285  -0.000000
     6  C   -0.491244  -0.000000
     7  O   -0.298782   0.000000
     8  C    0.160433   0.000000
     9  C   -0.172170  -0.000000
    10  O   -0.215309  -0.000000
    11  C   -0.171906  -0.000000
    12  C   -0.085049   0.000000
    13  C   -0.180747  -0.000000
    14  O   -0.332363   0.000000
    15  C    0.612337   0.000000
    16  C   -0.517666   0.000000
    17  O   -0.397216  -0.000000
    18  C    0.506012  -0.000000
    19  C   -0.038024   0.000000
    20  O   -0.394989  -0.000000
    21  H    0.316771  -0.000000
    22  H    0.236161   0.000000
    23  H    0.185601   0.000000
    24  H    0.304539   0.000000
    25  H    0.202854   0.000000
    26  H    0.228869  -0.000000
    27  H    0.377284  -0.000000
    28  H    0.398437   0.000000
 Sum of Mulliken charges =  -0.00000  -0.00000

 Dipole moment (field-independent basis, Debye):
    X=             -3.4696    Y=              1.7246    Z=              0.0000  Tot=              3.8746
 Quadrupole moment (field-independent basis, Debye-Ang):
   XX=            -85.4747   YY=           -127.4846   ZZ=           -115.6126
   XY=              4.0957   XZ=             -0.0094   YZ=             -0.0021

 Normal termination of Gaussian 16 at Tue Jan 16 05:13:01 2024.
