 Q-Chem 5.4, Q-Chem, Inc., Pleasanton, CA (2021)
 Q-Chem 5.4.0 for Intel X86 EM64T Linux

User input:
--------------------------------------------------------------
$molecule
0 1
C                 -4.3881690000     -0.4533180000     -0.1694230000
C                 -2.9049950000     -0.7072710000     -0.1351970000
C                 -2.4040560000     -1.9758120000     -0.3095350000
C                 -1.0300100000     -2.2550360000     -0.2709960000
Cl                -0.6240120000     -3.9417010000     -0.5213490000
C                 -0.1048120000     -1.2324890000     -0.0625060000
C                  1.3685070000     -1.5069170000      0.0049500000
O                  1.8253270000     -2.6363750000     -0.0135310000
C                  2.2922460000     -0.3418790000      0.1027490000
C                  3.6729390000     -0.5693480000      0.0768250000
C                  4.5557790000      0.4979680000      0.1729040000
C                  4.0674820000      1.8023360000      0.3037890000
C                  2.6989380000      2.0339210000      0.3369650000
C                  1.8037930000      0.9621890000      0.2334370000
C                  0.3432550000      1.2300640000      0.2725420000
O                 -0.0396670000      2.3958260000      0.4335590000
C                 -0.5935610000      0.1061280000      0.1026130000
C                 -1.9950530000      0.3695620000      0.0801820000
N                 -2.4982080000      1.6166440000      0.2651860000
H                 -4.7448270000     -0.0265990000      0.7751110000
H                 -4.6607060000      0.2445200000     -0.9700920000
H                 -4.9361130000     -1.3798900000     -0.3414110000
H                 -3.0869770000     -2.7995220000     -0.4786090000
H                  4.0262870000     -1.5881690000     -0.0193480000
H                  5.6248200000      0.3193540000      0.1480310000
H                  4.7583440000      2.6343090000      0.3809900000
H                  2.2984650000      3.0339650000      0.4422640000
H                 -1.8419430000      2.3815990000      0.3751140000
H                 -3.4830710000      1.7859400000      0.1678530000
$end
$rem
MAX_SCF_CYCLES=200
BASIS  =  6-311++G(d,p)
GUI  =  2
JOB_TYPE  =  SP
METHOD  =  B3LYP
SOLVENT_METHOD = PCM
$end
$pcm
theory = CPCM
$end
$solvent
dielectric 37.219
opticaldielectric 1.43
$end

--------------------------------------------------------------

             Standard Nuclear Orientation (Angstroms)
    I     Atom           X                Y                Z
 ----------------------------------------------------------------
    1      C      -4.3881690000    -0.4533180000    -0.1694230000
    2      C      -2.9049950000    -0.7072710000    -0.1351970000
    3      C      -2.4040560000    -1.9758120000    -0.3095350000
    4      C      -1.0300100000    -2.2550360000    -0.2709960000
    5      Cl     -0.6240120000    -3.9417010000    -0.5213490000
    6      C      -0.1048120000    -1.2324890000    -0.0625060000
    7      C       1.3685070000    -1.5069170000     0.0049500000
    8      O       1.8253270000    -2.6363750000    -0.0135310000
    9      C       2.2922460000    -0.3418790000     0.1027490000
   10      C       3.6729390000    -0.5693480000     0.0768250000
   11      C       4.5557790000     0.4979680000     0.1729040000
   12      C       4.0674820000     1.8023360000     0.3037890000
   13      C       2.6989380000     2.0339210000     0.3369650000
   14      C       1.8037930000     0.9621890000     0.2334370000
   15      C       0.3432550000     1.2300640000     0.2725420000
   16      O      -0.0396670000     2.3958260000     0.4335590000
   17      C      -0.5935610000     0.1061280000     0.1026130000
   18      C      -1.9950530000     0.3695620000     0.0801820000
   19      N      -2.4982080000     1.6166440000     0.2651860000
   20      H      -4.7448270000    -0.0265990000     0.7751110000
   21      H      -4.6607060000     0.2445200000    -0.9700920000
   22      H      -4.9361130000    -1.3798900000    -0.3414110000
   23      H      -3.0869770000    -2.7995220000    -0.4786090000
   24      H       4.0262870000    -1.5881690000    -0.0193480000
   25      H       5.6248200000     0.3193540000     0.1480310000
   26      H       4.7583440000     2.6343090000     0.3809900000
   27      H       2.2984650000     3.0339650000     0.4422640000
   28      H      -1.8419430000     2.3815990000     0.3751140000
   29      H      -3.4830710000     1.7859400000     0.1678530000
 ----------------------------------------------------------------

    8   -1243.2927739765      9.38e-06  Convergence criterion met
 Total energy in the final basis set =    -1243.2927739765

                    Orbital Energies (a.u.)
 --------------------------------------------------------------

 Alpha MOs
 -- Occupied --
******** -19.1255 -19.1245 -14.3339 -10.2822 -10.2782 -10.2516 -10.2488
-10.2170 -10.2079 -10.2066 -10.2038 -10.2031 -10.1990 -10.1942 -10.1936
-10.1930 -10.1925 -10.1762  -9.4757  -7.2402  -7.2309  -7.2298  -1.0648
 -1.0590  -0.9479  -0.9021  -0.8856  -0.8453  -0.8184  -0.7794  -0.7745
 -0.7456  -0.7210  -0.6804  -0.6599  -0.6396  -0.6061  -0.5873  -0.5759
 -0.5485  -0.5353  -0.5101  -0.5002  -0.4767  -0.4752  -0.4699  -0.4600
 -0.4528  -0.4479  -0.4457  -0.4359  -0.4322  -0.4194  -0.4119  -0.3977
 -0.3903  -0.3866  -0.3752  -0.3726  -0.3651  -0.3645  -0.3312  -0.3157
 -0.2850  -0.2819  -0.2752  -0.2728  -0.2658  -0.2248

          Ground-State Mulliken Net Atomic Charges

     Atom                 Charge (a.u.)
  ----------------------------------------
      1 C                    -0.470848
      2 C                     0.484763
      3 C                    -0.828086
      4 C                     0.937259
      5 Cl                    0.391678
      6 C                     0.521508
      7 C                    -1.476973
      8 O                    -0.202482
      9 C                    -0.032800
     10 C                     0.209962
     11 C                    -0.433280
     12 C                    -0.497989
     13 C                     0.194081
     14 C                    -0.170322
     15 C                    -0.365076
     16 O                    -0.324865
     17 C                     0.156918
     18 C                    -0.005303
     19 N                    -0.419805
     20 H                     0.194894
     21 H                     0.198770
     22 H                     0.192031
     23 H                     0.230985
     24 H                     0.189638
     25 H                     0.222116
     26 H                     0.220551
     27 H                     0.197475
     28 H                     0.357445
     29 H                     0.327756
  ----------------------------------------
  Sum of atomic charges =     0.000000

                    Cartesian Multipole Moments
 -----------------------------------------------------------------
    Charge (ESU x 10^10)
                 0.0000
    Dipole Moment (Debye)
         X      -4.0259      Y       4.0402      Z      -0.2791
       Tot       5.7104
    Quadrupole Moments (Debye-Ang)
        XX     -76.5833     XY       8.2118     YY    -131.1970
        XZ       1.6530     YZ      -0.7011     ZZ    -120.0477

 Total job time:  189.13s(wall), 385.16s(cpu)
        *  Thank you very much for using Q-Chem.  Have a nice day.  *
