 Q-Chem 5.4, Q-Chem, Inc., Pleasanton, CA (2021)
 Q-Chem 5.4.0 for Intel X86 EM64T Linux

User input:
--------------------------------------------------------------
$molecule
-4 1
O                  5.9003620000     -1.6153980000      1.2598520000
S                  5.4585670000     -0.8856810000      0.0199110000
O                  6.2329570000      0.3927000000     -0.1565830000
O                  5.5038640000     -1.7525950000     -1.1983860000
C                  3.7202990000     -0.4064110000      0.2931750000
C                  3.4300010000      0.4256310000      1.4157720000
C                  2.1312560000      0.8151610000      1.6541820000
C                  1.0412380000      0.4260340000      0.8271940000
C                 -0.2946960000      0.8850130000      1.1557370000
O                 -0.5319270000      1.6344090000      2.1786030000
C                 -1.3355850000      0.4272930000      0.2528780000
C                 -2.6936930000      0.8015390000      0.4876580000
C                 -3.7212170000      0.4056200000     -0.3435180000
C                 -3.4308440000     -0.3969760000     -1.4874390000
C                 -2.1309470000     -0.7847810000     -1.7288200000
C                 -1.0422150000     -0.4171750000     -0.8892500000
C                  0.2936610000     -0.8897360000     -1.2089230000
O                  0.5304470000     -1.6518580000     -2.2201220000
C                  1.3362520000     -0.4251750000     -0.3108450000
C                  2.6932120000     -0.8115770000     -0.5348560000
S                 -5.4591970000      0.8622950000     -0.0255440000
O                 -5.9124270000      1.6824930000     -1.2013790000
O                 -6.2271260000     -0.4274410000      0.0669900000
O                 -5.4922980000      1.6385210000      1.2539650000
H                  4.2371220000      0.7392790000      2.0704170000
H                  1.8864140000      1.4482580000      2.5027580000
H                 -2.8995170000      1.4122700000      1.3583570000
H                 -4.2312830000     -0.6908290000     -2.1619580000
H                 -1.8888530000     -1.3960770000     -2.5943430000
H                  2.8961700000     -1.4448080000     -1.3901910000
$end

$rem
BASIS  =  6-311++G(d,p)
GUI  =  2
JOB_TYPE  =  SP
METHOD  =  B3LYP
SCF_CONVERGENCE  = 8
SOLVENT_METHOD = sm12
$end

$smx
solvent dimethylformamide
charges CM5
$end

--------------------------------------------------------------

             Standard Nuclear Orientation (Angstroms)
    I     Atom           X                Y                Z
 ----------------------------------------------------------------
    1      O       5.9003620000    -1.6153980000     1.2598520000
    2      S       5.4585670000    -0.8856810000     0.0199110000
    3      O       6.2329570000     0.3927000000    -0.1565830000
    4      O       5.5038640000    -1.7525950000    -1.1983860000
    5      C       3.7202990000    -0.4064110000     0.2931750000
    6      C       3.4300010000     0.4256310000     1.4157720000
    7      C       2.1312560000     0.8151610000     1.6541820000
    8      C       1.0412380000     0.4260340000     0.8271940000
    9      C      -0.2946960000     0.8850130000     1.1557370000
   10      O      -0.5319270000     1.6344090000     2.1786030000
   11      C      -1.3355850000     0.4272930000     0.2528780000
   12      C      -2.6936930000     0.8015390000     0.4876580000
   13      C      -3.7212170000     0.4056200000    -0.3435180000
   14      C      -3.4308440000    -0.3969760000    -1.4874390000
   15      C      -2.1309470000    -0.7847810000    -1.7288200000
   16      C      -1.0422150000    -0.4171750000    -0.8892500000
   17      C       0.2936610000    -0.8897360000    -1.2089230000
   18      O       0.5304470000    -1.6518580000    -2.2201220000
   19      C       1.3362520000    -0.4251750000    -0.3108450000
   20      C       2.6932120000    -0.8115770000    -0.5348560000
   21      S      -5.4591970000     0.8622950000    -0.0255440000
   22      O      -5.9124270000     1.6824930000    -1.2013790000
   23      O      -6.2271260000    -0.4274410000     0.0669900000
   24      O      -5.4922980000     1.6385210000     1.2539650000
   25      H       4.2371220000     0.7392790000     2.0704170000
   26      H       1.8864140000     1.4482580000     2.5027580000
   27      H      -2.8995170000     1.4122700000     1.3583570000
   28      H      -4.2312830000    -0.6908290000    -2.1619580000
   29      H      -1.8888530000    -1.3960770000    -2.5943430000
   30      H       2.8961700000    -1.4448080000    -1.3901910000
 ----------------------------------------------------------------

   19   -1935.3188133357      7.12e-09  Convergence criterion met
 Total energy in the final basis set =    -1936.1351351218

                    Orbital Energies (a.u.)
 --------------------------------------------------------------

 Alpha MOs
 -- Occupied --
-89.0245 -89.0243 -19.0686 -19.0680 -19.0670 -19.0669 -19.0668 -19.0667
-19.0310 -19.0304 -10.1908 -10.1902 -10.1836 -10.1836 -10.1742 -10.1736
-10.1701 -10.1701 -10.1695 -10.1695 -10.1571 -10.1570 -10.1550 -10.1546
 -8.0827  -8.0826  -6.0456  -6.0455  -6.0454  -6.0453  -6.0445  -6.0443
 -1.0781  -1.0780  -0.9471  -0.9437  -0.9429  -0.9424  -0.9383  -0.9374
 -0.8459  -0.8423  -0.7734  -0.7449  -0.7442  -0.7305  -0.6575  -0.6479
 -0.6173  -0.5998  -0.5736  -0.5588  -0.5385  -0.5220  -0.4963  -0.4722
 -0.4586  -0.4547  -0.4516  -0.4271  -0.4268  -0.4262  -0.4240  -0.4199
 -0.4194  -0.4096  -0.3953  -0.3904  -0.3867  -0.3676  -0.3612  -0.3494
 -0.3447  -0.3341  -0.3248  -0.3169  -0.3061  -0.3060  -0.3059  -0.3053
 -0.2751  -0.2740  -0.2721  -0.2693  -0.2664  -0.2660  -0.2511  -0.2414
 -0.2300  -0.2273  -0.2270  -0.2265  -0.2080  -0.2022  -0.1192

          Ground-State Mulliken Net Atomic Charges

     Atom                 Charge (a.u.)
  ----------------------------------------
      1 O                    -0.188160
      2 S                     1.670096
      3 O                    -0.184754
      4 O                    -0.325177
      5 C                    -0.431903
      6 C                     0.818859
      7 C                    -0.125238
      8 C                    -1.015819
      9 C                    -1.772690
     10 O                    -0.268997
     11 C                    -0.904857
     12 C                     0.233350
     13 C                    -0.462150
     14 C                     0.875911
     15 C                    -0.108176
     16 C                    -1.000678
     17 C                    -1.792126
     18 O                    -0.264574
     19 C                    -0.908462
     20 C                     0.269277
     21 S                     1.646859
     22 O                    -0.178743
     23 O                    -0.194042
     24 O                    -0.333709
     25 H                     0.255841
     26 H                     0.179281
     27 H                     0.038132
     28 H                     0.259945
     29 H                     0.176418
     30 H                     0.036286
  ----------------------------------------
  Sum of atomic charges =    -4.000000

                    Cartesian Multipole Moments
 -----------------------------------------------------------------
    Charge (ESU x 10^10)
               -19.2128
    Dipole Moment (Debye)
         X      -0.0182      Y       0.1109      Z       0.1875
       Tot       0.2186
    Quadrupole Moments (Debye-Ang)
        XX    -587.6022     XY      66.1132     YY    -213.5504
        XZ       0.7846     YZ     -22.2778     ZZ    -218.7480

 Total job time:  1368.93s(wall), 7973.53s(cpu)
        *  Thank you very much for using Q-Chem.  Have a nice day.  *
