 Gaussian 16, Revision A.03,
 Gaussian 16:  ES64L-G16RevA.03 25-Dec-2016

 ----------------------------------------------------------------
 #P UB3LYP/6-311++G(d,p) SCRF=(PCM,Solvent=n,n-DiMethylFormamide)
 ----------------------------------------------------------------

 -------
 Reduced
 -------
 Symbolic Z-matrix:
 Charge = -2 Multiplicity = 1

                         Standard orientation:
 ---------------------------------------------------------------------
 Center     Atomic      Atomic             Coordinates (Angstroms)
 Number     Number       Type             X           Y           Z
 ---------------------------------------------------------------------
      1          8           0       -4.072270    1.791946    0.000122
      2          6           0       -2.879147    1.055362   -0.000005
      3          6           0       -1.646465    1.678894   -0.000123
      4          6           0       -0.444734    0.925517   -0.000125
      5          6           0        0.831658    1.629592   -0.000139
      6          8           0        0.897973    2.905522   -0.000157
      7          6           0        2.008342    0.784381   -0.000077
      8          6           0        3.293254    1.371924    0.000078
      9          6           0        4.456262    0.625387    0.000232
     10          6           0        4.366343   -0.799893    0.000218
     11          6           0        3.140262   -1.419257    0.000050
     12          6           0        1.915959   -0.672172   -0.000095
     13          6           0        0.668180   -1.292103   -0.000201
     14          8           0        0.587329   -2.676434   -0.000137
     15          6           0       -0.515569   -0.509892   -0.000139
     16          6           0       -1.814966   -1.146607   -0.000020
     17          8           0       -1.988988   -2.453713    0.000043
     18          6           0       -2.965948   -0.342649    0.000012
     19          8           0       -4.172342   -1.024985    0.000216
     20          1           0       -3.800182    2.715030    0.000879
     21          1           0       -1.556472    2.762302   -0.000213
     22          1           0        3.322424    2.457739    0.000101
     23          1           0        5.428924    1.112767    0.000372
     24          1           0        5.275537   -1.399714    0.000357
     25          1           0        3.068974   -2.502028    0.000042
     26          1           0       -0.393007   -2.865939   -0.000455
     27          1           0       -3.840386   -1.949752    0.000216
 ---------------------------------------------------------------------

 SCF Done:  E(UB3LYP) =  -914.965972213     A.U. after   16 cycles

 The electronic state is 1-A.
 Alpha  occ. eigenvalues --  -19.14064 -19.12499 -19.10211 -19.05716 -19.03141
 Alpha  occ. eigenvalues --  -10.21164 -10.19657 -10.19039 -10.18833 -10.18646
 Alpha  occ. eigenvalues --  -10.15513 -10.15256 -10.15095 -10.14986 -10.14964
 Alpha  occ. eigenvalues --  -10.14938 -10.14350 -10.14061 -10.13565  -1.04740
 Alpha  occ. eigenvalues --   -1.03135  -1.01257  -0.95403  -0.95152  -0.83476
 Alpha  occ. eigenvalues --   -0.81460  -0.76220  -0.73171  -0.70974  -0.70286
 Alpha  occ. eigenvalues --   -0.64994  -0.62158  -0.59736  -0.57489  -0.55099
 Alpha  occ. eigenvalues --   -0.52692  -0.50736  -0.50165  -0.48494  -0.47477
 Alpha  occ. eigenvalues --   -0.45631  -0.42693  -0.41872  -0.41626  -0.40681
 Alpha  occ. eigenvalues --   -0.40341  -0.39388  -0.38658  -0.38499  -0.36620
 Alpha  occ. eigenvalues --   -0.36267  -0.36002  -0.35622  -0.34617  -0.33546
 Alpha  occ. eigenvalues --   -0.33174  -0.32117  -0.31210  -0.30849  -0.27522
 Alpha  occ. eigenvalues --   -0.24687  -0.24068  -0.23495  -0.20651  -0.20383
 Alpha  occ. eigenvalues --   -0.17898  -0.12020
 Alpha virt. eigenvalues --   -0.02531  -0.00264   0.00508   0.00885   0.01177
 Alpha virt. eigenvalues --    0.02233   0.02470   0.03063   0.04251   0.04885
 Alpha virt. eigenvalues --    0.04889   0.04997   0.06726   0.06862   0.06955

  Beta  occ. eigenvalues --  -19.14064 -19.12499 -19.10211 -19.05716 -19.03141
  Beta  occ. eigenvalues --  -10.21164 -10.19657 -10.19039 -10.18833 -10.18646
  Beta  occ. eigenvalues --  -10.15513 -10.15256 -10.15095 -10.14986 -10.14964
  Beta  occ. eigenvalues --  -10.14938 -10.14350 -10.14061 -10.13565  -1.04740
  Beta  occ. eigenvalues --   -1.03135  -1.01257  -0.95403  -0.95152  -0.83476
  Beta  occ. eigenvalues --   -0.81460  -0.76220  -0.73171  -0.70974  -0.70286
  Beta  occ. eigenvalues --   -0.64994  -0.62158  -0.59736  -0.57489  -0.55099
  Beta  occ. eigenvalues --   -0.52692  -0.50736  -0.50165  -0.48494  -0.47477
  Beta  occ. eigenvalues --   -0.45631  -0.42693  -0.41872  -0.41626  -0.40681
  Beta  occ. eigenvalues --   -0.40341  -0.39388  -0.38658  -0.38499  -0.36620
  Beta  occ. eigenvalues --   -0.36267  -0.36002  -0.35622  -0.34617  -0.33546
  Beta  occ. eigenvalues --   -0.33174  -0.32117  -0.31210  -0.30849  -0.27522
  Beta  occ. eigenvalues --   -0.24687  -0.24068  -0.23495  -0.20651  -0.20383
  Beta  occ. eigenvalues --   -0.17898  -0.12020
  Beta virt. eigenvalues --   -0.02531  -0.00264   0.00508   0.00885   0.01177
  Beta virt. eigenvalues --    0.02233   0.02470   0.03063   0.04251   0.04885
  Beta virt. eigenvalues --    0.04889   0.04997   0.06726   0.06862   0.06955

 Mulliken charges and spin densities:
               1          2
     1  O   -0.344278   0.000000
     2  C   -0.361619  -0.000000
     3  C   -0.039079  -0.000000
     4  C    0.854805  -0.000000
     5  C   -0.545966   0.000000
     6  O   -0.607814  -0.000000
     7  C   -0.074940   0.000000
     8  C   -0.032165  -0.000000
     9  C   -0.527470  -0.000000
    10  C   -0.459584   0.000000
    11  C   -0.152874  -0.000000
    12  C    0.164164  -0.000000
    13  C    0.043027  -0.000000
    14  O   -0.495196   0.000000
    15  C    0.750364  -0.000000
    16  C   -0.589152   0.000000
    17  O   -0.667587  -0.000000
    18  C   -0.267728   0.000000
    19  O   -0.375390   0.000000
    20  H    0.297908  -0.000000
    21  H    0.128149  -0.000000
    22  H    0.143587  -0.000000
    23  H    0.159697  -0.000000
    24  H    0.160861  -0.000000
    25  H    0.148904   0.000000
    26  H    0.389456  -0.000000
    27  H    0.299924  -0.000000
 Sum of Mulliken charges =  -2.00000   0.00000

 Dipole moment (field-independent basis, Debye):
    X=              2.8026    Y=             -0.1759    Z=              0.0013  Tot=              2.8081
 Quadrupole moment (field-independent basis, Debye-Ang):
   XX=           -175.9498   YY=           -158.2501   ZZ=           -121.2357
   XY=            -16.1201   XZ=             -0.0023   YZ=              0.0075

 Normal termination of Gaussian 16 at Tue Jan 16 06:22:57 2024.
