 Q-Chem 5.4, Q-Chem, Inc., Pleasanton, CA (2021)
 Q-Chem 5.4.0 for Intel X86 EM64T Linux

User input:
--------------------------------------------------------------
$molecule
0 1
Cl                 3.0522620000      0.3947360000     -0.0148870000
C                  1.3493170000      0.1025690000     -0.0097610000
C                  0.8743190000     -1.1668860000     -0.0606680000
Cl                 1.8962320000     -2.5540610000     -0.1325930000
C                 -0.5830750000     -1.4306850000     -0.0568520000
O                 -1.0581500000     -2.5355160000     -0.1004830000
C                 -1.5335880000     -0.1950780000      0.0076700000
O                 -2.7242760000     -0.3696640000      0.0126090000
C                 -0.9036300000      1.1443120000      0.0599630000
C                  0.4461990000      1.2764850000      0.0514880000
Cl                 1.1664680000      2.8457330000      0.1129480000
Cl                -1.9820790000      2.4880550000      0.1305650000
$end
$rem
MAX_SCF_CYCLES=200
BASIS  =  6-311++G(d,p)
GUI  =  2
JOB_TYPE  =  SP
METHOD  =  B3LYP
SOLVENT_METHOD = COSMO
$end
$solvent
dielectric 37.219
opticaldielectric 1.43
$end

--------------------------------------------------------------

             Standard Nuclear Orientation (Angstroms)
    I     Atom           X                Y                Z
 ----------------------------------------------------------------
    1      Cl     -1.5471595059    -2.2623285260     0.0000476985
    2      C      -0.7410969260    -0.7340377747     0.0000100324
    3      C      -1.4593172264     0.4165665096    -0.0000160111
    4      Cl     -3.1834018908     0.4521464993    -0.0000253549
    5      C      -0.7804043068     1.7328791598    -0.0000131183
    6      O      -1.3678913803     2.7831697847    -0.0000145143
    7      C       0.7798401157     1.7331041609     0.0000247011
    8      O       1.3670090514     2.7835684482     0.0000453874
    9      C       1.4591225090     0.4170028574    -0.0000025495
   10      C       0.7412836820    -0.7337739565    -0.0000062044
   11      Cl      1.5479893743    -2.2616253808    -0.0000338036
   12      Cl      3.1831891723     0.4527279015    -0.0000019568
 ----------------------------------------------------------------

    9   -2220.0146819244      3.44e-06  Convergence criterion met
 Total energy in the final basis set =    -2220.0146819244
    5   -2220.0276787242      5.77e-06  Convergence criterion met
 Total energy in the final basis set =    -2220.0276787242

                    Orbital Energies (a.u.)
 --------------------------------------------------------------

 Alpha MOs
 -- Occupied --
********-101.5963-101.5878-101.5878 -19.1713 -19.1713 -10.3164 -10.3162
-10.3088 -10.3085 -10.2840 -10.2840  -9.5108  -9.5107  -9.5022  -9.5022
 -7.2758  -7.2757  -7.2670  -7.2670  -7.2659  -7.2659  -7.2644  -7.2644
 -7.2572  -7.2572  -7.2563  -7.2563  -1.1195  -1.0930  -0.9695  -0.9298
 -0.8995  -0.8816  -0.8381  -0.7595  -0.7295  -0.6352  -0.6345  -0.5822
 -0.5337  -0.5091  -0.4958  -0.4879  -0.4878  -0.4711  -0.4583  -0.4425
 -0.4405  -0.3954  -0.3741  -0.3726  -0.3643  -0.3618  -0.3511  -0.3467
 -0.3236  -0.3191  -0.2977  -0.2690

          Ground-State Mulliken Net Atomic Charges

     Atom                 Charge (a.u.)
  ----------------------------------------
      1 Cl                    0.670288
      2 C                    -0.612531
      3 C                     0.320039
      4 Cl                    0.374617
      5 C                    -0.520897
      6 O                    -0.231065
      7 C                    -0.519614
      8 O                    -0.231278
      9 C                     0.319708
     10 C                    -0.613936
     11 Cl                    0.670075
     12 Cl                    0.374594
  ----------------------------------------
  Sum of atomic charges =     0.000000

                    Cartesian Multipole Moments
 -----------------------------------------------------------------
    Charge (ESU x 10^10)
                 0.0000
    Dipole Moment (Debye)
         X       0.0002      Y      -5.6231      Z      -0.0003
       Tot       5.6231
    Quadrupole Moments (Debye-Ang)
        XX     -97.4940     XY       0.0006     YY    -110.4068
        XZ       0.0004     YZ      -0.0005     ZZ     -92.1126

 Total job time:  17.70s(wall), 117.82s(cpu)
        *  Thank you very much for using Q-Chem.  Have a nice day.  *
