 Q-Chem 5.4, Q-Chem, Inc., Pleasanton, CA (2021)
 Q-Chem 5.4.0 for Intel X86 EM64T Linux

User input:
--------------------------------------------------------------
$molecule
-1 2
C                  5.0723530000     -2.4798040000      0.2729590000
C                  5.8102150000     -1.5220010000     -0.3842780000
C                  5.1230290000     -0.4965260000     -1.0735050000
C                  3.6590840000     -2.4587670000      0.2630700000
C                  2.9850150000     -1.4168020000     -0.4361050000
C                  3.7450960000     -0.4345210000     -1.1009580000
C                  2.9281540000     -3.5086260000      0.9751300000
C                  1.4646310000     -3.4218690000      0.9186510000
C                  0.7905310000     -2.3800030000      0.2193700000
C                  1.5215120000     -1.3300940000     -0.4927420000
C                  0.7045530000     -4.4039900000      1.5837010000
C                 -0.6226820000     -2.3589820000      0.2093930000
C                 -1.3605790000     -3.3167370000      0.8667600000
O                  3.5150370000     -4.4208930000      1.5972040000
O                  0.9345930000     -0.4178800000     -1.1147700000
H                  5.5556890000     -3.2801730000      0.8202430000
H                 -2.4428970000     -3.3051600000      0.8522090000
H                  3.2213540000      0.3596900000     -1.6179370000
H                  1.2283300000     -5.1980900000      2.1008290000
H                 -1.1060280000     -1.5587140000     -0.3380290000
C                 -0.6733940000     -4.3419490000      1.5562110000
S                  6.0673870000      0.7167650000     -1.9736610000
H                  6.8925350000     -1.5336730000     -0.3698670000
S                 -1.6176340000     -5.5550940000      2.4568810000
O                 -0.7622520000     -6.7077080000      2.7528430000
O                 -2.9253070000     -5.7540970000      1.8243740000
N                 -1.9832390000     -4.7260830000      3.9088170000
H                 -1.2244180000     -4.8447280000      4.5748560000
H                 -2.8435610000     -5.1195780000      4.2814310000
O                  5.2118270000      1.8691020000     -2.2701690000
O                  7.3746920000      0.9163300000     -1.3405520000
N                  6.4342110000     -0.1123500000     -3.4250070000
H                  7.2941420000      0.2817390000     -3.7978140000
H                  5.6752790000      0.0043570000     -4.0912170000
$end

$rem
BASIS  =  6-311++G(d,p)
GUI  =  2
JOB_TYPE  =  SP
METHOD  =  B3LYP
SCF_CONVERGENCE  = 8
SOLVENT_METHOD = sm12
$end

$smx
solvent dimethylformamide
charges CM5
$end

--------------------------------------------------------------

             Standard Nuclear Orientation (Angstroms)
    I     Atom           X                Y                Z
 ----------------------------------------------------------------
    1      C       5.0723530000    -2.4798040000     0.2729590000
    2      C       5.8102150000    -1.5220010000    -0.3842780000
    3      C       5.1230290000    -0.4965260000    -1.0735050000
    4      C       3.6590840000    -2.4587670000     0.2630700000
    5      C       2.9850150000    -1.4168020000    -0.4361050000
    6      C       3.7450960000    -0.4345210000    -1.1009580000
    7      C       2.9281540000    -3.5086260000     0.9751300000
    8      C       1.4646310000    -3.4218690000     0.9186510000
    9      C       0.7905310000    -2.3800030000     0.2193700000
   10      C       1.5215120000    -1.3300940000    -0.4927420000
   11      C       0.7045530000    -4.4039900000     1.5837010000
   12      C      -0.6226820000    -2.3589820000     0.2093930000
   13      C      -1.3605790000    -3.3167370000     0.8667600000
   14      O       3.5150370000    -4.4208930000     1.5972040000
   15      O       0.9345930000    -0.4178800000    -1.1147700000
   16      H       5.5556890000    -3.2801730000     0.8202430000
   17      H      -2.4428970000    -3.3051600000     0.8522090000
   18      H       3.2213540000     0.3596900000    -1.6179370000
   19      H       1.2283300000    -5.1980900000     2.1008290000
   20      H      -1.1060280000    -1.5587140000    -0.3380290000
   21      C      -0.6733940000    -4.3419490000     1.5562110000
   22      S       6.0673870000     0.7167650000    -1.9736610000
   23      H       6.8925350000    -1.5336730000    -0.3698670000
   24      S      -1.6176340000    -5.5550940000     2.4568810000
   25      O      -0.7622520000    -6.7077080000     2.7528430000
   26      O      -2.9253070000    -5.7540970000     1.8243740000
   27      N      -1.9832390000    -4.7260830000     3.9088170000
   28      H      -1.2244180000    -4.8447280000     4.5748560000
   29      H      -2.8435610000    -5.1195780000     4.2814310000
   30      O       5.2118270000     1.8691020000    -2.2701690000
   31      O       7.3746920000     0.9163300000    -1.3405520000
   32      N       6.4342110000    -0.1123500000    -3.4250070000
   33      H       7.2941420000     0.2817390000    -3.7978140000
   34      H       5.6752790000     0.0043570000    -4.0912170000
 ----------------------------------------------------------------

   17   -1897.0697103742      7.67e-09  Convergence criterion met
 Total energy in the final basis set =    -1897.1628439379

                    Orbital Energies (a.u.)
 --------------------------------------------------------------

 Alpha MOs
 -- Occupied --
-89.0721 -89.0721 -19.1242 -19.1242 -19.1240 -19.1240 -19.0895 -19.0895
-14.3412 -14.3412 -10.2398 -10.2398 -10.2203 -10.2203 -10.2007 -10.2007
-10.1990 -10.1990 -10.1947 -10.1946 -10.1941 -10.1941 -10.1910 -10.1910
 -8.1338  -8.1338  -6.0967  -6.0967  -6.0962  -6.0962  -6.0946  -6.0946
 -1.1271  -1.1270  -1.0191  -1.0170  -1.0169  -1.0167  -0.9071  -0.9070
 -0.8869  -0.8805  -0.8171  -0.7845  -0.7780  -0.7721  -0.7039  -0.7008
 -0.6573  -0.6538  -0.6118  -0.6106  -0.5796  -0.5603  -0.5536  -0.5359
 -0.5225  -0.5191  -0.5109  -0.5047  -0.4944  -0.4879  -0.4829  -0.4656
 -0.4543  -0.4509  -0.4478  -0.4411  -0.4402  -0.4292  -0.4266  -0.4146
 -0.3948  -0.3931  -0.3873  -0.3782  -0.3684  -0.3641  -0.3607  -0.3582
 -0.3402  -0.3394  -0.3282  -0.3280  -0.3174  -0.3170  -0.2991  -0.2980
 -0.2827  -0.2794  -0.2766  -0.2699  -0.2588  -0.2503  -0.1592

 Beta MOs
 -- Occupied --
-89.0721 -89.0721 -19.1241 -19.1241 -19.1240 -19.1240 -19.0834 -19.0834
-14.3411 -14.3411 -10.2387 -10.2387 -10.2198 -10.2198 -10.2010 -10.2009
-10.1982 -10.1982 -10.1938 -10.1938 -10.1930 -10.1930 -10.1912 -10.1912
 -8.1338  -8.1338  -6.0967  -6.0967  -6.0962  -6.0962  -6.0946  -6.0946
 -1.1270  -1.1270  -1.0169  -1.0168  -1.0089  -1.0063  -0.9069  -0.9069
 -0.8846  -0.8794  -0.8131  -0.7825  -0.7768  -0.7699  -0.7026  -0.6953
 -0.6546  -0.6520  -0.6105  -0.6101  -0.5776  -0.5593  -0.5520  -0.5351
 -0.5222  -0.5188  -0.5104  -0.5043  -0.4919  -0.4872  -0.4815  -0.4650
 -0.4540  -0.4506  -0.4476  -0.4402  -0.4285  -0.4262  -0.4233  -0.4101
 -0.3903  -0.3855  -0.3778  -0.3715  -0.3654  -0.3638  -0.3562  -0.3528
 -0.3399  -0.3392  -0.3278  -0.3277  -0.3171  -0.3168  -0.2965  -0.2936
 -0.2779  -0.2678  -0.2644  -0.2619  -0.2532  -0.2447

          Ground-State Mulliken Net Atomic Charges

     Atom                 Charge (a.u.)    Spin (a.u.)
  --------------------------------------------------------
      1 C                    -0.145178       0.009047
      2 C                     0.626236       0.067202
      3 C                     0.233757       0.020478
      4 C                    -0.503022       0.068374
      5 C                    -0.625004       0.052586
      6 C                     0.184543       0.002688
      7 C                    -1.500476       0.054987
      8 C                    -0.625667       0.052511
      9 C                    -0.502779       0.068319
     10 C                    -1.500567       0.054931
     11 C                     0.183873       0.002749
     12 C                    -0.144990       0.009018
     13 C                     0.626203       0.067192
     14 O                    -0.313951       0.225585
     15 O                    -0.313881       0.225492
     16 H                     0.192242      -0.000824
     17 H                     0.329567      -0.004247
     18 H                     0.192583      -0.000562
     19 H                     0.192594      -0.000567
     20 H                     0.192279      -0.000822
     21 C                     0.234708       0.020424
     22 S                     0.666536       0.004335
     23 H                     0.329551      -0.004248
     24 S                     0.666622       0.004319
     25 O                    -0.220123       0.001848
     26 O                    -0.260936      -0.001980
     27 N                    -0.106164       0.000120
     28 H                     0.353732      -0.000177
     29 H                     0.395614       0.000709
     30 O                    -0.220073       0.001848
     31 O                    -0.261065      -0.001982
     32 N                    -0.106147       0.000115
     33 H                     0.395649       0.000711
     34 H                     0.353736      -0.000177
  --------------------------------------------------------
  Sum of atomic charges =    -1.000000

                    Cartesian Multipole Moments
 -----------------------------------------------------------------
    Charge (ESU x 10^10)
                -4.8032
    Dipole Moment (Debye)
         X     -10.6874      Y      11.6175      Z      -1.1604
       Tot      15.8282
    Quadrupole Moments (Debye-Ang)
        XX    -221.5757     XY      -3.7124     YY    -252.4720
        XZ     -15.6159     YZ      17.8933     ZZ    -139.2150

 Total job time:  1283.00s(wall), 9931.27s(cpu)
        *  Thank you very much for using Q-Chem.  Have a nice day.  *
