 Q-Chem 5.4, Q-Chem, Inc., Pleasanton, CA (2021)
 Q-Chem 5.4.0 for Intel X86 EM64T Linux

User input:
--------------------------------------------------------------
$molecule
-1 2
N                 -2.7945330000     -2.0527700000      0.3760680000
C                 -2.4885180000     -0.7166680000      0.1921740000
C                 -3.5248220000      0.2144520000      0.0708670000
C                 -3.2595260000      1.5650480000     -0.1829210000
C                 -1.9591610000      2.0069720000     -0.3228740000
C                 -0.8857540000      1.1025680000     -0.1947710000
C                  0.4700400000      1.6281980000     -0.3368470000
O                  0.6851930000      2.8435980000     -0.5729780000
C                  1.5723630000      0.6770550000     -0.1957050000
C                  2.8795270000      1.1813640000     -0.3516140000
C                  3.9774930000      0.3600140000     -0.2387110000
C                  3.7931840000     -1.0076940000      0.0310270000
C                  2.5193660000     -1.5197840000      0.1898510000
Cl                 2.4771600000     -3.2680470000      0.4984370000
C                  1.3504980000     -0.7123510000      0.0923790000
C                 -0.0168710000     -1.2197320000      0.2750600000
O                 -0.2257910000     -2.4203190000      0.6067450000
C                 -1.1223100000     -0.2785110000      0.0762440000
H                 -3.6941090000     -2.2529440000      0.7836910000
H                 -1.9919940000     -2.6188140000      0.6543180000
H                 -4.5504600000     -0.1343740000      0.1598950000
H                 -4.0872640000      2.2627380000     -0.2744730000
H                 -1.7216460000      3.0430650000     -0.5261660000
H                  2.9736350000      2.2393060000     -0.5632950000
H                  4.9821990000      0.7525130000     -0.3596710000
H                  4.6421020000     -1.6748850000      0.1132680000
$end
$rem
MAX_SCF_CYCLES=200
BASIS  =  6-311++G(d,p)
GUI  =  2
JOB_TYPE  =  SP
METHOD  =  B3LYP
SOLVENT_METHOD = PCM
$end
$pcm
theory = CPCM
$end
$solvent
dielectric 37.219
opticaldielectric 1.43
$end

--------------------------------------------------------------

             Standard Nuclear Orientation (Angstroms)
    I     Atom           X                Y                Z
 ----------------------------------------------------------------
    1      N      -2.7945330000    -2.0527700000     0.3760680000
    2      C      -2.4885180000    -0.7166680000     0.1921740000
    3      C      -3.5248220000     0.2144520000     0.0708670000
    4      C      -3.2595260000     1.5650480000    -0.1829210000
    5      C      -1.9591610000     2.0069720000    -0.3228740000
    6      C      -0.8857540000     1.1025680000    -0.1947710000
    7      C       0.4700400000     1.6281980000    -0.3368470000
    8      O       0.6851930000     2.8435980000    -0.5729780000
    9      C       1.5723630000     0.6770550000    -0.1957050000
   10      C       2.8795270000     1.1813640000    -0.3516140000
   11      C       3.9774930000     0.3600140000    -0.2387110000
   12      C       3.7931840000    -1.0076940000     0.0310270000
   13      C       2.5193660000    -1.5197840000     0.1898510000
   14      Cl      2.4771600000    -3.2680470000     0.4984370000
   15      C       1.3504980000    -0.7123510000     0.0923790000
   16      C      -0.0168710000    -1.2197320000     0.2750600000
   17      O      -0.2257910000    -2.4203190000     0.6067450000
   18      C      -1.1223100000    -0.2785110000     0.0762440000
   19      H      -3.6941090000    -2.2529440000     0.7836910000
   20      H      -1.9919940000    -2.6188140000     0.6543180000
   21      H      -4.5504600000    -0.1343740000     0.1598950000
   22      H      -4.0872640000     2.2627380000    -0.2744730000
   23      H      -1.7216460000     3.0430650000    -0.5261660000
   24      H       2.9736350000     2.2393060000    -0.5632950000
   25      H       4.9821990000     0.7525130000    -0.3596710000
   26      H       4.6421020000    -1.6748850000     0.1132680000
 ----------------------------------------------------------------

    8   -1204.0932664247      8.03e-06  Convergence criterion met
 Total energy in the final basis set =    -1204.0932664247

                    Orbital Energies (a.u.)
 --------------------------------------------------------------

 Alpha MOs
 -- Occupied --
******** -19.0798 -19.0755 -14.3031 -10.2382 -10.2366 -10.2248 -10.2171
-10.1900 -10.1796 -10.1792 -10.1772 -10.1752 -10.1723 -10.1715 -10.1705
-10.1616 -10.1571  -9.4612  -7.2256  -7.2165  -7.2155  -1.0122  -1.0038
 -0.9123  -0.8861  -0.8435  -0.8311  -0.7863  -0.7435  -0.7393  -0.7278
 -0.6681  -0.6383  -0.6271  -0.5814  -0.5606  -0.5453  -0.5264  -0.4996
 -0.4789  -0.4759  -0.4669  -0.4473  -0.4435  -0.4306  -0.4301  -0.4174
 -0.4130  -0.3991  -0.3893  -0.3874  -0.3786  -0.3632  -0.3578  -0.3494
 -0.3463  -0.3299  -0.3149  -0.3092  -0.2719  -0.2521  -0.2518  -0.2473
 -0.2355  -0.2116  -0.1415

 Beta MOs
 -- Occupied --
******** -19.0751 -19.0705 -14.3029 -10.2382 -10.2349 -10.2227 -10.2172
-10.1890 -10.1789 -10.1783 -10.1767 -10.1750 -10.1718 -10.1714 -10.1703
-10.1605 -10.1565  -9.4612  -7.2256  -7.2164  -7.2155  -1.0039  -0.9947
 -0.9115  -0.8849  -0.8413  -0.8301  -0.7825  -0.7416  -0.7365  -0.7259
 -0.6613  -0.6364  -0.6247  -0.5805  -0.5585  -0.5430  -0.5250  -0.4987
 -0.4763  -0.4742  -0.4657  -0.4462  -0.4422  -0.4301  -0.4195  -0.4153
 -0.4088  -0.3970  -0.3864  -0.3773  -0.3685  -0.3620  -0.3488  -0.3477
 -0.3431  -0.3257  -0.3141  -0.3029  -0.2544  -0.2468  -0.2445  -0.2428
 -0.2313  -0.2039

          Ground-State Mulliken Net Atomic Charges

     Atom                 Charge (a.u.)    Spin (a.u.)
  --------------------------------------------------------
      1 N                    -0.433948       0.007662
      2 C                     0.210580       0.023741
      3 C                    -0.269658       0.093567
      4 C                    -0.416077       0.016524
      5 C                    -0.039076       0.075634
      6 C                     0.225354       0.000346
      7 C                    -0.719001       0.111650
      8 O                    -0.471354       0.195480
      9 C                     0.128496       0.016010
     10 C                     0.296079       0.033497
     11 C                    -0.703641       0.036544
     12 C                    -0.167425       0.059500
     13 C                     1.080735       0.022441
     14 Cl                    0.303870       0.000927
     15 C                    -0.076472       0.069621
     16 C                    -1.489405       0.076179
     17 O                    -0.358855       0.177295
     18 C                     0.152829       0.008772
     19 H                     0.283592      -0.000549
     20 H                     0.323764      -0.002958
     21 H                     0.182591      -0.006407
     22 H                     0.199604      -0.001627
     23 H                     0.159420      -0.004416
     24 H                     0.177224      -0.002023
     25 H                     0.201757      -0.003222
     26 H                     0.219015      -0.004189
  --------------------------------------------------------
  Sum of atomic charges =    -1.000000

                    Cartesian Multipole Moments
 -----------------------------------------------------------------
    Charge (ESU x 10^10)
                -4.8032
    Dipole Moment (Debye)
         X      -2.3583      Y      -0.5693      Z       0.9239
       Tot       2.5960
    Quadrupole Moments (Debye-Ang)
        XX    -103.4354     XY       3.3884     YY    -149.8432
        XZ      -4.3582     YZ       4.1096     ZZ    -119.2688

 Total job time:  223.51s(wall), 403.16s(cpu)
        *  Thank you very much for using Q-Chem.  Have a nice day.  *
