 Q-Chem 5.4, Q-Chem, Inc., Pleasanton, CA (2021)
 Q-Chem 5.4.0 for Intel X86 EM64T Linux

User input:
--------------------------------------------------------------
$molecule
-1 2
C                  4.9873710000     -2.0431900000      0.4908420000
C                  5.7291490000     -1.3380440000     -0.4381670000
C                  5.1163620000     -0.6064620000     -1.4812240000
C                  3.5856370000     -2.0413300000      0.4084410000
C                  2.9456370000     -1.3131300000     -0.6363850000
C                  3.7431650000     -0.6030520000     -1.5641390000
C                  2.8216440000     -2.8002860000      1.4106080000
C                  1.3586270000     -2.7600010000      1.2620510000
C                  0.7257880000     -2.0298940000      0.2142010000
C                  1.4910320000     -1.2765080000     -0.7778050000
C                  0.5709890000     -3.4679370000      2.1839920000
C                 -0.6864220000     -2.0336870000      0.1330080000
C                 -1.4558850000     -2.7285990000      1.0372700000
O                  3.3767500000     -3.4386480000      2.3214850000
O                  0.9306800000     -0.6352420000     -1.6998330000
H                  5.4580120000     -2.5978860000      1.2928530000
S                  7.4945480000     -1.3777830000     -0.3460540000
H                 -2.5368830000     -2.7231550000      0.9825100000
H                  3.2310520000     -0.0521660000     -2.3435730000
H                  1.0669080000     -4.0137110000      2.9768420000
H                 -1.1417060000     -1.4649870000     -0.6685870000
C                 -0.8061130000     -3.4471130000      2.0668870000
S                 -1.7856100000     -4.3717850000      3.2124880000
O                 -1.0652940000     -4.6232500000      4.4579310000
O                 -3.1460860000     -3.8375100000      3.2769330000
O                 -1.8610040000     -5.8108690000      2.3829540000
C                 -2.5622740000     -6.8714370000      3.0567570000
H                 -2.0717790000     -7.1170550000      4.0016270000
H                 -2.5122010000     -7.7227380000      2.3793730000
H                 -3.6052800000     -6.5949970000      3.2313400000
H                  5.7269600000     -0.0542550000     -2.1839620000
O                  7.9571500000     -1.7213000000      0.9960020000
O                  8.0728670000     -0.2138500000     -1.0179060000
O                  7.7726620000     -2.6961800000     -1.3203900000
C                  9.1530050000     -3.0801170000     -1.4537560000
H                  9.5717640000     -3.3531870000     -0.4822620000
H                  9.7363610000     -2.2734850000     -1.9051740000
H                  9.1462070000     -3.9471850000     -2.1127100000
$end

$rem
BASIS  =  6-311++G(d,p)
GUI  =  2
JOB_TYPE  =  SP
METHOD  =  B3LYP
SCF_CONVERGENCE  = 8
SOLVENT_METHOD = sm12
$end

$smx
solvent dimethylformamide
charges CM5
$end

--------------------------------------------------------------

             Standard Nuclear Orientation (Angstroms)
    I     Atom           X                Y                Z
 ----------------------------------------------------------------
    1      C       4.9873710000    -2.0431900000     0.4908420000
    2      C       5.7291490000    -1.3380440000    -0.4381670000
    3      C       5.1163620000    -0.6064620000    -1.4812240000
    4      C       3.5856370000    -2.0413300000     0.4084410000
    5      C       2.9456370000    -1.3131300000    -0.6363850000
    6      C       3.7431650000    -0.6030520000    -1.5641390000
    7      C       2.8216440000    -2.8002860000     1.4106080000
    8      C       1.3586270000    -2.7600010000     1.2620510000
    9      C       0.7257880000    -2.0298940000     0.2142010000
   10      C       1.4910320000    -1.2765080000    -0.7778050000
   11      C       0.5709890000    -3.4679370000     2.1839920000
   12      C      -0.6864220000    -2.0336870000     0.1330080000
   13      C      -1.4558850000    -2.7285990000     1.0372700000
   14      O       3.3767500000    -3.4386480000     2.3214850000
   15      O       0.9306800000    -0.6352420000    -1.6998330000
   16      H       5.4580120000    -2.5978860000     1.2928530000
   17      S       7.4945480000    -1.3777830000    -0.3460540000
   18      H      -2.5368830000    -2.7231550000     0.9825100000
   19      H       3.2310520000    -0.0521660000    -2.3435730000
   20      H       1.0669080000    -4.0137110000     2.9768420000
   21      H      -1.1417060000    -1.4649870000    -0.6685870000
   22      C      -0.8061130000    -3.4471130000     2.0668870000
   23      S      -1.7856100000    -4.3717850000     3.2124880000
   24      O      -1.0652940000    -4.6232500000     4.4579310000
   25      O      -3.1460860000    -3.8375100000     3.2769330000
   26      O      -1.8610040000    -5.8108690000     2.3829540000
   27      C      -2.5622740000    -6.8714370000     3.0567570000
   28      H      -2.0717790000    -7.1170550000     4.0016270000
   29      H      -2.5122010000    -7.7227380000     2.3793730000
   30      H      -3.6052800000    -6.5949970000     3.2313400000
   31      H       5.7269600000    -0.0542550000    -2.1839620000
   32      O       7.9571500000    -1.7213000000     0.9960020000
   33      O       8.0728670000    -0.2138500000    -1.0179060000
   34      O       7.7726620000    -2.6961800000    -1.3203900000
   35      C       9.1530050000    -3.0801170000    -1.4537560000
   36      H       9.5717640000    -3.3531870000    -0.4822620000
   37      H       9.7363610000    -2.2734850000    -1.9051740000
   38      H       9.1462070000    -3.9471850000    -2.1127100000
 ----------------------------------------------------------------

   18   -2015.4447197032      8.86e-09  Convergence criterion met
 Total energy in the final basis set =    -2015.5312263358

                    Orbital Energies (a.u.)
 --------------------------------------------------------------

 Alpha MOs
 -- Occupied --
-89.0857 -89.0856 -19.1712 -19.1711 -19.1337 -19.1337 -19.1334 -19.1333
-19.0947 -19.0879 -10.2472 -10.2364 -10.2270 -10.2270 -10.2250 -10.2249
-10.2051 -10.2051 -10.2024 -10.2024 -10.1968 -10.1968 -10.1963 -10.1963
-10.1915 -10.1915  -8.1467  -8.1467  -6.1104  -6.1104  -6.1087  -6.1086
 -6.1072  -6.1072  -1.1517  -1.1517  -1.0423  -1.0422  -1.0258  -1.0255
 -1.0254  -1.0145  -0.8912  -0.8854  -0.8234  -0.7943  -0.7827  -0.7752
 -0.7441  -0.7310  -0.6935  -0.6774  -0.6660  -0.6261  -0.6237  -0.6047
 -0.5814  -0.5662  -0.5655  -0.5315  -0.5292  -0.5168  -0.5099  -0.5016
 -0.4911  -0.4810  -0.4794  -0.4619  -0.4584  -0.4543  -0.4541  -0.4511
 -0.4492  -0.4424  -0.4383  -0.4344  -0.4277  -0.4124  -0.4059  -0.4032
 -0.3960  -0.3959  -0.3911  -0.3736  -0.3680  -0.3618  -0.3515  -0.3513
 -0.3483  -0.3476  -0.3334  -0.3332  -0.3315  -0.3310  -0.2995  -0.2995
 -0.2895  -0.2844  -0.2791  -0.2772  -0.2609  -0.2512  -0.1607

 Beta MOs
 -- Occupied --
-89.0857 -89.0856 -19.1711 -19.1710 -19.1337 -19.1336 -19.1333 -19.1333
-19.0896 -19.0810 -10.2464 -10.2351 -10.2270 -10.2270 -10.2243 -10.2242
-10.2055 -10.2055 -10.2018 -10.2018 -10.1958 -10.1958 -10.1954 -10.1954
-10.1915 -10.1915  -8.1467  -8.1467  -6.1104  -6.1104  -6.1087  -6.1086
 -6.1073  -6.1072  -1.1516  -1.1516  -1.0422  -1.0421  -1.0254  -1.0254
 -1.0172  -1.0027  -0.8888  -0.8842  -0.8194  -0.7927  -0.7805  -0.7739
 -0.7426  -0.7303  -0.6884  -0.6753  -0.6644  -0.6250  -0.6224  -0.6039
 -0.5796  -0.5649  -0.5646  -0.5307  -0.5281  -0.5161  -0.5091  -0.4999
 -0.4907  -0.4803  -0.4787  -0.4609  -0.4579  -0.4541  -0.4539  -0.4508
 -0.4490  -0.4373  -0.4348  -0.4288  -0.4234  -0.4083  -0.4053  -0.4028
 -0.3943  -0.3888  -0.3737  -0.3728  -0.3620  -0.3555  -0.3513  -0.3511
 -0.3479  -0.3474  -0.3334  -0.3331  -0.3309  -0.3288  -0.2994  -0.2993
 -0.2810  -0.2710  -0.2700  -0.2657  -0.2558  -0.2452

          Ground-State Mulliken Net Atomic Charges

     Atom                 Charge (a.u.)    Spin (a.u.)
  --------------------------------------------------------
      1 C                     0.023438      -0.022953
      2 C                    -0.424298       0.037471
      3 C                     0.530332       0.049540
      4 C                    -0.551050       0.058875
      5 C                    -0.276598       0.065632
      6 C                     0.119885       0.027704
      7 C                    -1.479634       0.040724
      8 C                    -0.550616       0.058773
      9 C                    -0.281146       0.065168
     10 C                    -0.951944       0.076796
     11 C                     0.022185      -0.022874
     12 C                     0.118058       0.027501
     13 C                     0.533763       0.049556
     14 O                    -0.312685       0.188091
     15 O                    -0.317685       0.258244
     16 H                     0.177089       0.000837
     17 S                     0.561150       0.003791
     18 H                     0.341655      -0.003546
     19 H                     0.201359      -0.001937
     20 H                     0.176892       0.000820
     21 H                     0.201394      -0.001937
     22 C                    -0.423381       0.037461
     23 S                     0.559879       0.003740
     24 O                    -0.198324       0.002286
     25 O                    -0.134433      -0.000951
     26 O                    -0.019929       0.000575
     27 C                     0.051924       0.000830
     28 H                     0.179584       0.000062
     29 H                     0.259538       0.000185
     30 H                     0.191970       0.000062
     31 H                     0.341267      -0.003546
     32 O                    -0.197379       0.002260
     33 O                    -0.136035      -0.000970
     34 O                    -0.019395       0.000594
     35 C                     0.052082       0.000828
     36 H                     0.179818       0.000062
     37 H                     0.191756       0.000062
     38 H                     0.259517       0.000186
  --------------------------------------------------------
  Sum of atomic charges =    -1.000000

                    Cartesian Multipole Moments
 -----------------------------------------------------------------
    Charge (ESU x 10^10)
                -4.8032
    Dipole Moment (Debye)
         X     -11.6319      Y       7.6591      Z      -6.6646
       Tot      15.4395
    Quadrupole Moments (Debye-Ang)
        XX    -244.0803     XY       8.2971     YY    -179.1808
        XZ     -13.3511     YZ      28.6000     ZZ    -206.7052

 Total job time:  1874.97s(wall), 13499.78s(cpu)
        *  Thank you very much for using Q-Chem.  Have a nice day.  *
