 Q-Chem 5.4, Q-Chem, Inc., Pleasanton, CA (2021)
 Q-Chem 5.4.0 for Intel X86 EM64T Linux

User input:
--------------------------------------------------------------
$molecule
-2 1
N                 -3.3657440000     -0.8787750000      0.0743180000
C                 -2.0651630000     -0.2862540000      0.0913590000
C                 -1.8956470000      1.0726470000      0.3957700000
C                 -0.6334460000      1.7274930000      0.4231190000
O                 -0.4822920000      2.9763120000      0.6961430000
C                  0.4992480000      0.8548800000      0.0934020000
C                  1.8070960000      1.3799570000      0.0742830000
C                  2.9173020000      0.5990400000     -0.2101490000
C                  2.7413680000     -0.7817540000     -0.4847870000
C                  1.4717210000     -1.3281960000     -0.4813990000
C                  0.3143070000     -0.5491780000     -0.2168690000
C                 -0.9895670000     -1.1676500000     -0.2191860000
O                 -1.2002670000     -2.4335660000     -0.4513690000
H                 -3.8823630000     -0.6695110000      0.9274650000
H                 -3.2016850000     -1.8863900000      0.0048550000
H                 -2.7751060000      1.6855900000      0.5951000000
H                  1.9052630000      2.4386860000      0.2976060000
H                  3.9152910000      1.0351770000     -0.2177280000
H                  3.6074680000     -1.4061300000     -0.7040190000
H                  1.3122180000     -2.3823790000     -0.6879140000
$end

$rem
BASIS  =  6-311++G(d,p)
GUI  =  2
JOB_TYPE  =  SP
METHOD  =  B3LYP
SCF_CONVERGENCE  = 8
SOLVENT_METHOD = sm12
$end

$smx
solvent dimethylformamide
charges CM5
$end

--------------------------------------------------------------

             Standard Nuclear Orientation (Angstroms)
    I     Atom           X                Y                Z
 ----------------------------------------------------------------
    1      N      -3.3657440000    -0.8787750000     0.0743180000
    2      C      -2.0651630000    -0.2862540000     0.0913590000
    3      C      -1.8956470000     1.0726470000     0.3957700000
    4      C      -0.6334460000     1.7274930000     0.4231190000
    5      O      -0.4822920000     2.9763120000     0.6961430000
    6      C       0.4992480000     0.8548800000     0.0934020000
    7      C       1.8070960000     1.3799570000     0.0742830000
    8      C       2.9173020000     0.5990400000    -0.2101490000
    9      C       2.7413680000    -0.7817540000    -0.4847870000
   10      C       1.4717210000    -1.3281960000    -0.4813990000
   11      C       0.3143070000    -0.5491780000    -0.2168690000
   12      C      -0.9895670000    -1.1676500000    -0.2191860000
   13      O      -1.2002670000    -2.4335660000    -0.4513690000
   14      H      -3.8823630000    -0.6695110000     0.9274650000
   15      H      -3.2016850000    -1.8863900000     0.0048550000
   16      H      -2.7751060000     1.6855900000     0.5951000000
   17      H       1.9052630000     2.4386860000     0.2976060000
   18      H       3.9152910000     1.0351770000    -0.2177280000
   19      H       3.6074680000    -1.4061300000    -0.7040190000
   20      H       1.3122180000    -2.3823790000    -0.6879140000
 ----------------------------------------------------------------

   19    -590.6032273228      8.60e-09  Convergence criterion met
 Total energy in the final basis set =     -590.9013446011

                    Orbital Energies (a.u.)
 --------------------------------------------------------------

 Alpha MOs
 -- Occupied --
-19.0324 -19.0298 -14.3083 -10.1946 -10.1812 -10.1791 -10.1789 -10.1753
-10.1738 -10.1722 -10.1603 -10.1587 -10.1423  -0.9487  -0.9446  -0.8870
 -0.8478  -0.7767  -0.7466  -0.7173  -0.6570  -0.6110  -0.5972  -0.5513
 -0.5178  -0.4989  -0.4733  -0.4543  -0.4315  -0.4275  -0.4142  -0.4004
 -0.3923  -0.3713  -0.3640  -0.3526  -0.3421  -0.3325  -0.3236  -0.2940
 -0.2523  -0.2390  -0.2127  -0.2118  -0.2062  -0.1248

          Ground-State Mulliken Net Atomic Charges

     Atom                 Charge (a.u.)
  ----------------------------------------
      1 N                    -0.135502
      2 C                    -0.059134
      3 C                    -0.576555
      4 C                    -1.016224
      5 O                    -0.353890
      6 C                    -2.001284
      7 C                     0.152616
      8 C                     1.857227
      9 C                     1.738186
     10 C                     0.242544
     11 C                    -1.681571
     12 C                    -1.503861
     13 O                    -0.374520
     14 H                     0.324636
     15 H                     0.296465
     16 H                     0.024007
     17 H                     0.103188
     18 H                     0.417316
     19 H                     0.427111
     20 H                     0.119246
  ----------------------------------------
  Sum of atomic charges =    -2.000000

                    Cartesian Multipole Moments
 -----------------------------------------------------------------
    Charge (ESU x 10^10)
                -9.6064
    Dipole Moment (Debye)
         X       5.0314      Y      -2.6739      Z       0.3296
       Tot       5.7073
    Quadrupole Moments (Debye-Ang)
        XX    -111.0623     XY      -2.3045     YY    -136.7630
        XZ      -3.6213     YZ     -11.2505     ZZ     -91.4570

 Total job time:  390.65s(wall), 2393.52s(cpu)
        *  Thank you very much for using Q-Chem.  Have a nice day.  *
