 Gaussian 16, Revision A.03,
 Gaussian 16:  ES64L-G16RevA.03 25-Dec-2016

 ----------------------------------------------------------------------
 #P UB3LYP/6-311++G(d,p) nosym opt freq SCRF=(PCM,Solvent=n,n-DiMethylF
 ormamide)
 ----------------------------------------------------------------------

 --------
 Oxidized
 --------
 Symbolic Z-matrix:
 Charge =  0 Multiplicity = 1

 SCF Done:  E(UB3LYP) =  -689.181504983     A.U. after   15 cycles
 SCF Done:  E(UB3LYP) =  -689.181579151     A.U. after   11 cycles
 SCF Done:  E(UB3LYP) =  -689.181580182     A.U. after   11 cycles
 SCF Done:  E(UB3LYP) =  -689.181589086     A.U. after   10 cycles
 SCF Done:  E(UB3LYP) =  -689.181589712     A.U. after   10 cycles
 SCF Done:  E(UB3LYP) =  -689.181589898     A.U. after    9 cycles
 SCF Done:  E(UB3LYP) =  -689.181589948     A.U. after    8 cycles
 SCF Done:  E(UB3LYP) =  -689.181589968     A.U. after    8 cycles
 Optimization completed.
    -- Stationary point found.
 Normal termination of Gaussian 16 at Sun Feb 11 00:48:29 2024.

 ----------------------------------------------------------------------
 #P Geom=AllCheck Guess=TCheck SCRF=Check GenChk UB3LYP/6-311++G(d,p) F
 req
 ----------------------------------------------------------------------

 Structure from the checkpoint file:  "282.chk"
 --------
 Oxidized
 --------
 Charge =  0 Multiplicity = 1

                          Input orientation:
 ---------------------------------------------------------------------
 Center     Atomic      Atomic             Coordinates (Angstroms)
 Number     Number       Type             X           Y           Z
 ---------------------------------------------------------------------
      1          6           0       -1.843423    3.149985    0.254491
      2          6           0       -2.980378    2.435751   -0.114317
      3          6           0       -2.870361    1.095250   -0.486079
      4          6           0       -0.596144    2.521308    0.250329
      5          6           0       -0.481768    1.170474   -0.123101
      6          6           0       -1.626118    0.464732   -0.490050
      7          6           0        0.614486    3.264522    0.636910
      8          6           0        1.921951    2.544606    0.612074
      9          6           0        2.055053    1.240833    0.264634
     10          6           0        0.851821    0.483190   -0.128373
     11          8           0        0.620140    4.442707    0.979812
     12          8           0        0.933918   -0.698006   -0.453276
     13          1           0       -1.910760    4.190625    0.546025
     14          1           0       -3.948671    2.921667   -0.112187
     15          1           0       -3.755096    0.539400   -0.773470
     16          1           0       -1.532800   -0.574971   -0.776599
     17          6           0        3.390904    0.548569    0.237999
     18          8           0        2.971594    3.299519    0.972062
     19          6           0        4.071427    0.618430   -1.143022
     20          1           0        3.244757   -0.497598    0.514292
     21          1           0        4.042498    1.002633    0.987546
     22          1           0        2.619041    4.184277    1.186367
     23          1           0        3.451479    0.148899   -1.910256
     24          1           0        5.031882    0.097280   -1.117335
     25          1           0        4.255406    1.654168   -1.439036
 ---------------------------------------------------------------------

 SCF Done:  E(UB3LYP) =  -689.181589968     A.U. after    1 cycles

 Alpha  occ. eigenvalues --  -19.18131 -19.15141 -19.13036 -10.29563 -10.28239
 Alpha  occ. eigenvalues --  -10.26970 -10.21339 -10.21227 -10.20546 -10.20393
 Alpha  occ. eigenvalues --  -10.20202 -10.20030 -10.20015 -10.18058 -10.16502
 Alpha  occ. eigenvalues --   -1.11065  -1.06910  -1.06170  -0.89506  -0.84555
 Alpha  occ. eigenvalues --   -0.79558  -0.78258  -0.75161  -0.69956  -0.66437
 Alpha  occ. eigenvalues --   -0.64982  -0.61186  -0.60501  -0.57616  -0.54513
 Alpha  occ. eigenvalues --   -0.52098  -0.49945  -0.48235  -0.47446  -0.46911
 Alpha  occ. eigenvalues --   -0.45714  -0.45518  -0.44314  -0.42914  -0.42527
 Alpha  occ. eigenvalues --   -0.41426  -0.40929  -0.38920  -0.38183  -0.37844
 Alpha  occ. eigenvalues --   -0.37410  -0.36234  -0.35045  -0.30502  -0.29223
 Alpha  occ. eigenvalues --   -0.28246  -0.28098  -0.26006
 Alpha virt. eigenvalues --   -0.12810  -0.05876  -0.02861  -0.01029   0.00144
 Alpha virt. eigenvalues --    0.00741   0.01691   0.02044   0.02312   0.02382
 Alpha virt. eigenvalues --    0.03803   0.04401   0.04862   0.05071   0.05218

  Beta  occ. eigenvalues --  -19.18131 -19.15141 -19.13036 -10.29563 -10.28239
  Beta  occ. eigenvalues --  -10.26970 -10.21339 -10.21227 -10.20546 -10.20393
  Beta  occ. eigenvalues --  -10.20202 -10.20030 -10.20015 -10.18058 -10.16502
  Beta  occ. eigenvalues --   -1.11065  -1.06910  -1.06170  -0.89506  -0.84555
  Beta  occ. eigenvalues --   -0.79558  -0.78258  -0.75161  -0.69956  -0.66437
  Beta  occ. eigenvalues --   -0.64982  -0.61186  -0.60501  -0.57616  -0.54513
  Beta  occ. eigenvalues --   -0.52098  -0.49945  -0.48235  -0.47446  -0.46911
  Beta  occ. eigenvalues --   -0.45714  -0.45518  -0.44314  -0.42914  -0.42527
  Beta  occ. eigenvalues --   -0.41426  -0.40929  -0.38920  -0.38183  -0.37844
  Beta  occ. eigenvalues --   -0.37410  -0.36234  -0.35045  -0.30502  -0.29223
  Beta  occ. eigenvalues --   -0.28246  -0.28098  -0.26006
  Beta virt. eigenvalues --   -0.12810  -0.05876  -0.02861  -0.01029   0.00144
  Beta virt. eigenvalues --    0.00741   0.01691   0.02044   0.02312   0.02382
  Beta virt. eigenvalues --    0.03803   0.04401   0.04862   0.05071   0.05218

 Mulliken charges and spin densities:
               1          2
     1  C   -0.021342  -0.000000
     2  C   -0.285498  -0.000000
     3  C   -0.424052  -0.000000
     4  C    1.068601   0.000000
     5  C   -0.094097  -0.000000
     6  C    0.187960  -0.000000
     7  C   -0.985664  -0.000000
     8  C   -0.571703   0.000000
     9  C    1.542327   0.000000
    10  C   -0.904259  -0.000000
    11  O   -0.309064   0.000000
    12  O   -0.283944  -0.000000
    13  H    0.184194  -0.000000
    14  H    0.214414   0.000000
    15  H    0.206763  -0.000000
    16  H    0.192075   0.000000
    17  C   -0.046902   0.000000
    18  O   -0.220960  -0.000000
    19  C   -0.616867  -0.000000
    20  H    0.189545  -0.000000
    21  H    0.197231  -0.000000
    22  H    0.308933  -0.000000
    23  H    0.164625  -0.000000
    24  H    0.147310  -0.000000
    25  H    0.160374  -0.000000
 Sum of Mulliken charges =   0.00000  -0.00000

 Dipole moment (field-independent basis, Debye):
    X=             -2.8180    Y=              1.3296    Z=             -0.1089  Tot=              3.1178
 Quadrupole moment (field-independent basis, Debye-Ang):
   XX=            -74.5376   YY=            -92.5921   ZZ=            -88.9819
   XY=             -3.3182   XZ=              1.9726   YZ=             -2.1580

  Exact polarizability: 257.782  -5.168 257.688  14.778  44.319 127.369
 Approx polarizability: 276.101  -0.919 344.812  19.207  63.605 149.924

                      1                      2                      3
                      A                      A                      A
 Frequencies --     48.7091                58.8713                88.6495
 Red. masses --      3.4292                 4.0020                 5.9153
 Frc consts  --      0.0048                 0.0082                 0.0274
 IR Inten    --      3.3652                 4.4422                 0.8733

                      4                      5                      6
                      A                      A                      A
 Frequencies --    120.2797               153.5418               200.5358
 Red. masses --      5.2527                 5.7312                 2.0266
 Frc consts  --      0.0448                 0.0796                 0.0480
 IR Inten    --      0.0242                 1.2801                 0.4697

                      7                      8                      9
                      A                      A                      A
 Frequencies --    204.7560               257.7280               316.0333
 Red. masses --      1.7229                 3.8678                 2.3385
 Frc consts  --      0.0426                 0.1514                 0.1376
 IR Inten    --      0.3432                 0.8770                 7.0237

                     10                     11                     12
                      A                      A                      A
 Frequencies --    326.0944               362.5539               386.5205
 Red. masses --      5.1466                 5.2116                 9.4795
 Frc consts  --      0.3224                 0.4036                 0.8344
 IR Inten    --      6.0240                13.5755                29.5296

                     13                     14                     15
                      A                      A                      A
 Frequencies --    414.5946               420.0654               442.7533
 Red. masses --      5.6267                 7.2908                 4.5671
 Frc consts  --      0.5698                 0.7580                 0.5275
 IR Inten    --     27.4889                 8.4578                 7.9608

                     16                     17                     18
                      A                      A                      A
 Frequencies --    459.7861               511.6144               581.4177
 Red. masses --      4.7343                 8.8872                 3.3105
 Frc consts  --      0.5897                 1.3706                 0.6594
 IR Inten    --      5.9273                 1.4690                52.9694

                     19                     20                     21
                      A                      A                      A
 Frequencies --    607.5533               633.2576               671.5187
 Red. masses --      1.3042                 5.3434                 6.4033
 Frc consts  --      0.2836                 1.2625                 1.7012
 IR Inten    --     90.9396                 2.1731                 9.1449

                     22                     23                     24
                      A                      A                      A
 Frequencies --    706.0928               709.5824               734.7152
 Red. masses --      3.6560                 4.2978                 2.3746
 Frc consts  --      1.0739                 1.2750                 0.7552
 IR Inten    --      5.4911                11.3592               112.4904

                     25                     26                     27
                      A                      A                      A
 Frequencies --    769.1562               774.9657               806.7919
 Red. masses --      6.9524                 1.5646                 1.9760
 Frc consts  --      2.4233                 0.5536                 0.7578
 IR Inten    --      1.3258                 5.6763                16.6620

                     28                     29                     30
                      A                      A                      A
 Frequencies --    876.0794               894.9272               910.4935
 Red. masses --      3.0665                 3.2041                 1.3375
 Frc consts  --      1.3867                 1.5119                 0.6533
 IR Inten    --     52.0161                27.7725                 0.0388

                     31                     32                     33
                      A                      A                      A
 Frequencies --    986.2425               997.9042              1022.3695
 Red. masses --      3.8554                 1.3862                 1.3342
 Frc consts  --      2.2095                 0.8133                 0.8216
 IR Inten    --     74.2007                 1.8740                 0.0997

                     34                     35                     36
                      A                      A                      A
 Frequencies --   1024.7165              1052.3536              1073.3982
 Red. masses --      3.4508                 2.1159                 1.8178
 Frc consts  --      2.1349                 1.3806                 1.2340
 IR Inten    --     27.5457                 2.3512                30.8062

                     37                     38                     39
                      A                      A                      A
 Frequencies --   1107.0210              1116.8846              1178.3925
 Red. masses --      2.0255                 1.8896                 1.1894
 Frc consts  --      1.4625                 1.3888                 0.9731
 IR Inten    --     55.0443                62.5232                42.8532

                     40                     41                     42
                      A                      A                      A
 Frequencies --   1192.8397              1226.0567              1275.8510
 Red. masses --      2.2744                 2.6407                 1.5281
 Frc consts  --      1.9067                 2.3387                 1.4656
 IR Inten    --     62.5929               129.2589               221.1701

                     43                     44                     45
                      A                      A                      A
 Frequencies --   1284.7076              1304.8301              1331.9381
 Red. masses --      2.0874                 1.8648                 3.6929
 Frc consts  --      2.0299                 1.8706                 3.8600
 IR Inten    --    434.8564                71.5384               187.3992

                     46                     47                     48
                      A                      A                      A
 Frequencies --   1350.0220              1367.2892              1378.3843
 Red. masses --      1.4473                 6.6684                 1.9676
 Frc consts  --      1.5541                 7.3450                 2.2025
 IR Inten    --      0.3338               117.6719               545.8441

                     49                     50                     51
                      A                      A                      A
 Frequencies --   1401.5106              1472.4537              1483.8805
 Red. masses --      1.3079                 1.0883                 2.3085
 Frc consts  --      1.5136                 1.3902                 2.9948
 IR Inten    --     83.6403                 9.5799                 5.0017

                     52                     53                     54
                      A                      A                      A
 Frequencies --   1488.0429              1496.3109              1504.9177
 Red. masses --      1.0421                 1.0944                 2.6456
 Frc consts  --      1.3595                 1.4437                 3.5302
 IR Inten    --      9.0319                17.2842                 8.5533

                     55                     56                     57
                      A                      A                      A
 Frequencies --   1610.3298              1619.1282              1673.4808
 Red. masses --      6.6238                 6.0511                10.5229
 Frc consts  --     10.1202                 9.3464                17.3631
 IR Inten    --     31.9467               302.6578               605.2420

                     58                     59                     60
                      A                      A                      A
 Frequencies --   1687.3101              1689.0283              3028.9689
 Red. masses --     11.7611                 7.6215                 1.0340
 Frc consts  --     19.7283                12.8105                 5.5893
 IR Inten    --    401.6842               100.8844                52.8656

                     61                     62                     63
                      A                      A                      A
 Frequencies --   3054.4844              3086.6286              3095.2810
 Red. masses --      1.0596                 1.1028                 1.1014
 Frc consts  --      5.8248                 6.1902                 6.2174
 IR Inten    --     26.8223                 5.2811                59.5283

                     64                     65                     66
                      A                      A                      A
 Frequencies --   3107.9896              3180.2628              3192.1582
 Red. masses --      1.1048                 1.0875                 1.0910
 Frc consts  --      6.2874                 6.4805                 6.5503
 IR Inten    --     44.2839                 3.1205                 8.0715

                     67                     68                     69
                      A                      A                      A
 Frequencies --   3202.9950              3206.3920              3618.0279
 Red. masses --      1.0930                 1.0959                 1.0645
 Frc consts  --      6.6064                 6.6380                 8.2101
 IR Inten    --      3.5732                15.3551               275.6358

 - Thermochemistry -
 -------------------
 Temperature   298.150 Kelvin.  Pressure   1.00000 Atm.
 Atom     1 has atomic number  6 and mass  12.00000

 Molecular mass:   202.06299 amu.
 Principal axes and moments of inertia in atomic units:
                           1         2         3
     Eigenvalues --  1802.485323528.061805148.50851
           X            0.99170   0.11375  -0.05991
           Y           -0.12729   0.93422  -0.33321
           Z            0.01807   0.33807   0.94095
 This molecule is an asymmetric top.
 Rotational symmetry number  1.
 Warning -- assumption of classical behavior for rotation
           may cause significant error
 Rotational temperatures (Kelvin)      0.04805     0.02455     0.01682
 Rotational constants (GHZ):           1.00125     0.51154     0.35054
 Zero-point vibrational energy     506142.5 (Joules/Mol)
                                  120.97097 (Kcal/Mol)
 Warning -- explicit consideration of  19 degrees of freedom as
           vibrations may cause significant error
 Vibrational temperatures:     70.08    84.70   127.55   173.06   220.91
          (Kelvin)            288.53   294.60   370.81   454.70   469.18
                              521.63   556.12   596.51   604.38   637.02
                              661.53   736.10   836.53   874.13   911.12
                              966.17  1015.91  1020.93  1057.09  1106.64
                             1115.00  1160.79  1260.48  1287.60  1310.00
                             1418.98  1435.76  1470.96  1474.34  1514.10
                             1544.38  1592.76  1606.95  1695.44  1716.23
                             1764.02  1835.67  1848.41  1877.36  1916.36
                             1942.38  1967.22  1983.19  2016.46  2118.53
                             2134.97  2140.96  2152.86  2165.24  2316.91
                             2329.56  2407.77  2427.66  2430.13  4358.01
                             4394.72  4440.97  4453.42  4471.70  4575.69
                             4592.80  4608.40  4613.28  5205.54

 Zero-point correction=                           0.192780 (Hartree/Particle)
 Thermal correction to Energy=                    0.205476
 Thermal correction to Enthalpy=                  0.206420
 Thermal correction to Gibbs Free Energy=         0.153326
 Sum of electronic and zero-point Energies=           -688.988810
 Sum of electronic and thermal Energies=              -688.976114
 Sum of electronic and thermal Enthalpies=            -688.975170
 Sum of electronic and thermal Free Energies=         -689.028264

                     E (Thermal)             CV                S
                      KCal/Mol        Cal/Mol-Kelvin    Cal/Mol-Kelvin
 Total                  128.938             49.058            111.746
 Electronic               0.000              0.000              0.000
 Translational            0.889              2.981             41.815
 Rotational               0.889              2.981             31.860
 Vibrational            127.161             43.096             38.071
 Vibration     1          0.595              1.978              4.869
 Vibration     2          0.596              1.974              4.495
 Vibration     3          0.601              1.957              3.690
 Vibration     4          0.609              1.932              3.096
 Vibration     5          0.619              1.899              2.628
 Vibration     6          0.638              1.839              2.128
 Vibration     7          0.640              1.833              2.090
 Vibration     8          0.667              1.750              1.677
 Vibration     9          0.703              1.643              1.331
 Vibration    10          0.710              1.623              1.279
 Vibration    11          0.736              1.549              1.111
 Vibration    12          0.755              1.499              1.014
 Vibration    13          0.778              1.439              0.911
 Vibration    14          0.783              1.427              0.892
 Vibration    15          0.802              1.377              0.818
 Vibration    16          0.818              1.339              0.767
 Vibration    17          0.867              1.224              0.630
 Vibration    18          0.938              1.071              0.483
 Vibration    19          0.966              1.016              0.437

 Optimization completed.
    -- Stationary point found.
 Normal termination of Gaussian 16 at Sun Feb 11 01:19:51 2024.
