 Q-Chem 5.4, Q-Chem, Inc., Pleasanton, CA (2021)
 Q-Chem 5.4.0 for Intel X86 EM64T Linux

User input:
--------------------------------------------------------------
$molecule
-1 2
C                  0.7272750000      1.1554440000     -1.5000130000
C                 -0.6748540000      0.9011160000     -1.7756280000
C                 -1.4724310000      0.1767610000     -0.9330790000
C                 -0.9997780000     -0.3938880000      0.3222070000
C                  0.4060460000     -0.1524890000      0.5903700000
C                  1.2070120000      0.5601150000     -0.2589520000
O                  1.4355300000      1.8481060000     -2.2657370000
O                 -1.7270150000     -1.0206110000      1.1260020000
S                  2.9488190000      0.7257370000      0.1910910000
C                  3.2368070000      2.5058600000      0.3860650000
C                  3.5720730000      3.2785850000     -0.7232170000
C                  3.1507930000      3.0583940000      1.6620700000
C                  3.3998930000      4.4193980000      1.8290030000
C                  3.8222420000      4.6375400000     -0.5424160000
C                  3.7357970000      5.2073050000      0.7280330000
O                  3.8050980000      0.2486640000     -0.9014650000
O                  3.1076650000      0.1391480000      1.5357660000
H                  3.6083430000      2.8175030000     -1.7002450000
H                  2.9057020000      2.4216430000      2.5028830000
H                  4.0802790000      5.2521150000     -1.3978340000
H                  3.3370410000      4.8609150000      2.8176480000
H                  3.9286590000      6.2668590000      0.8601650000
S                 -3.1828620000     -0.0978800000     -1.4458820000
C                 -4.2082470000      0.6782360000     -0.1667660000
C                 -4.6584090000      1.9803870000     -0.3734080000
C                 -4.5573670000     -0.0428190000      0.9726470000
C                 -5.3741450000      0.5633450000      1.9252580000
C                 -5.4718150000      2.5765290000      0.5884920000
C                 -5.8294110000      1.8683240000      1.7358020000
H                 -1.0768190000      1.3170370000     -2.6915980000
H                  0.8066530000     -0.5636650000      1.5090700000
H                 -4.3813600000      2.5022410000     -1.2808300000
H                 -4.1712750000     -1.0435140000      1.1068820000
H                 -5.6504220000      0.0151960000      2.8192550000
H                 -5.8293100000      3.5894360000      0.4384070000
H                 -6.4621620000      2.3346600000      2.4837770000
O                 -3.4873530000     -1.5337340000     -1.4563590000
O                 -3.3998820000      0.6905740000     -2.6741540000
$end
$rem
MAX_SCF_CYCLES=200
BASIS  =  6-311++G(d,p)
GUI  =  2
JOB_TYPE  =  SP
METHOD  =  B3LYP
SOLVENT_METHOD = COSMO
$end
$solvent
dielectric 37.219
opticaldielectric 1.43
$end

--------------------------------------------------------------

             Standard Nuclear Orientation (Angstroms)
    I     Atom           X                Y                Z
 ----------------------------------------------------------------
    1      C      -1.0012610355    -0.9783857943     1.0835128250
    2      C       0.4279205932    -0.9859969638     1.3364832475
    3      C       1.3548019116    -0.9932700879     0.3307267274
    4      C       1.0009210423    -0.9790971135    -1.0832575506
    5      C      -0.4282298053    -0.9868594088    -1.3362270984
    6      C      -1.3551127539    -0.9935664437    -0.3304727203
    7      O      -1.8364597007    -0.9388789831     2.0155114499
    8      O       1.8360928619    -0.9401331274    -2.0153045530
    9      S      -3.0955990143    -1.0582833737    -0.8104521684
   10      C      -3.8395553513     0.4626301214    -0.1599593145
   11      C      -4.3230429170     0.4933092395     1.1459167659
   12      C      -3.9443433276     1.5662433675    -1.0037236610
   13      C      -4.5416955075     2.7307181944    -0.5247475914
   14      C      -4.9213921876     1.6625234418     1.6116940963
   15      C      -5.0300089902     2.7780313678     0.7810377221
   16      O      -3.7605104401    -2.1961957815    -0.1642794870
   17      O      -3.1455569949    -0.9381576027    -2.2803309258
   18      H      -4.2044368995    -0.3764983797     1.7766807112
   19      H      -3.5734324017     1.4978999661    -2.0187321338
   20      H      -5.2985660183     1.7020134019     2.6276694520
   21      H      -4.6300044438     3.5961515385    -1.1724614402
   22      H      -5.4941024589     3.6858966881     1.1521268057
   23      S       3.0953332855    -1.0582003903     0.8106260853
   24      C       3.8397872684     0.4624405224     0.1599743605
   25      C       3.9460583271     1.5658334292     1.0038786943
   26      C       4.3222579951     0.4931487712    -1.1462974617
   27      C       4.9207240687     1.6621734547    -1.6123966587
   28      C       4.5435221631     2.7301191185     0.5245645873
   29      C       5.0305828831     2.7775084620    -0.7816802452
   30      H       0.7413744920    -0.9829104485     2.3734520547
   31      H      -0.7416929735    -0.9843057126    -2.3731917469
   32      H       3.5762829530     1.4975828303     2.0193147879
   33      H       4.2027013467    -0.3764345321    -1.7771759264
   34      H       5.2970109977     1.7016300226    -2.6287028475
   35      H       4.6328825018     3.5953568946     1.1723971997
   36      H       5.4946929906     3.6852507196    -1.1530500009
   37      O       3.7599013395    -2.1963462821     0.1645034370
   38      O       3.1452748484    -0.9381525774     2.2804913374
 ----------------------------------------------------------------

    9   -1941.1609649112      6.40e-06  Convergence criterion met
 Total energy in the final basis set =    -1941.1609649112
    4   -1941.2509401823      8.34e-06  Convergence criterion met
 Total energy in the final basis set =    -1941.2509401823

                    Orbital Energies (a.u.)
 --------------------------------------------------------------

 Alpha MOs
 -- Occupied --
-89.0623 -89.0623 -19.1299 -19.1298 -19.1279 -19.1278 -19.1070 -19.1069
-10.2587 -10.2587 -10.2209 -10.2208 -10.2158 -10.2158 -10.2024 -10.2023
-10.1954 -10.1954 -10.1929 -10.1928 -10.1892 -10.1892 -10.1875 -10.1875
-10.1867 -10.1867  -8.1262  -8.1261  -6.0891  -6.0890  -6.0879  -6.0878
 -6.0871  -6.0870  -1.1222  -1.1220  -1.0357  -1.0336  -1.0184  -1.0182
 -0.8789  -0.8787  -0.8656  -0.8093  -0.7836  -0.7761  -0.7645  -0.7645
 -0.7271  -0.7127  -0.6705  -0.6334  -0.6239  -0.6237  -0.6226  -0.6010
 -0.5764  -0.5497  -0.5416  -0.5182  -0.5148  -0.5130  -0.4898  -0.4878
 -0.4820  -0.4783  -0.4644  -0.4605  -0.4586  -0.4564  -0.4544  -0.4422
 -0.4414  -0.4398  -0.4354  -0.4322  -0.4090  -0.4027  -0.3885  -0.3882
 -0.3822  -0.3815  -0.3607  -0.3606  -0.3554  -0.3540  -0.3410  -0.3403
 -0.3271  -0.3256  -0.3160  -0.3151  -0.3111  -0.3013  -0.2803  -0.2774
 -0.2737  -0.2725  -0.2673  -0.2608  -0.1948

 Beta MOs
 -- Occupied --
-89.0623 -89.0623 -19.1299 -19.1298 -19.1279 -19.1278 -19.0998 -19.0998
-10.2579 -10.2579 -10.2203 -10.2203 -10.2158 -10.2158 -10.2003 -10.2003
-10.1954 -10.1954 -10.1929 -10.1928 -10.1892 -10.1892 -10.1875 -10.1875
-10.1867 -10.1867  -8.1262  -8.1261  -6.0891  -6.0890  -6.0879  -6.0878
 -6.0871  -6.0870  -1.1221  -1.1220  -1.0238  -1.0219  -1.0181  -1.0173
 -0.8788  -0.8787  -0.8597  -0.8074  -0.7833  -0.7753  -0.7645  -0.7645
 -0.7180  -0.7112  -0.6684  -0.6320  -0.6239  -0.6235  -0.6186  -0.6004
 -0.5753  -0.5492  -0.5404  -0.5166  -0.5121  -0.5119  -0.4894  -0.4876
 -0.4818  -0.4781  -0.4615  -0.4602  -0.4584  -0.4560  -0.4540  -0.4396
 -0.4396  -0.4343  -0.4274  -0.4224  -0.3995  -0.3933  -0.3877  -0.3823
 -0.3809  -0.3760  -0.3607  -0.3605  -0.3549  -0.3531  -0.3405  -0.3397
 -0.3257  -0.3239  -0.3143  -0.3108  -0.2957  -0.2861  -0.2782  -0.2743
 -0.2717  -0.2706  -0.2633  -0.2558

          Ground-State Mulliken Net Atomic Charges

     Atom                 Charge (a.u.)    Spin (a.u.)
  --------------------------------------------------------
      1 C                    -0.471382       0.051325
      2 C                    -0.401979       0.121936
      3 C                     0.360849       0.085334
      4 C                    -0.470970       0.051291
      5 C                    -0.401738       0.122049
      6 C                     0.361618       0.085377
      7 O                    -0.374577       0.262860
      8 O                    -0.374687       0.262891
      9 S                     0.413279      -0.030348
     10 C                     0.332098       0.002591
     11 C                    -0.252047       0.019722
     12 C                     0.115305      -0.000508
     13 C                    -0.521888      -0.000731
     14 C                    -0.430754      -0.003932
     15 C                    -0.334382       0.001166
     16 O                    -0.200346       0.005274
     17 O                    -0.255732      -0.002569
     18 H                     0.287358      -0.001095
     19 H                     0.266632       0.000681
     20 H                     0.235199       0.000016
     21 H                     0.231155       0.000027
     22 H                     0.212675      -0.000099
     23 S                     0.412961      -0.030337
     24 C                     0.331162       0.002560
     25 C                     0.115401      -0.000468
     26 C                    -0.253216       0.019705
     27 C                    -0.429242      -0.003940
     28 C                    -0.522030      -0.000730
     29 C                    -0.334194       0.001166
     30 H                     0.287645      -0.011718
     31 H                     0.287146      -0.011725
     32 H                     0.266526       0.000679
     33 H                     0.288315      -0.001098
     34 H                     0.235169       0.000016
     35 H                     0.231117       0.000027
     36 H                     0.212655      -0.000099
     37 O                    -0.199732       0.005272
     38 O                    -0.255381      -0.002568
  --------------------------------------------------------
  Sum of atomic charges =    -1.000010

                    Cartesian Multipole Moments
 -----------------------------------------------------------------
    Charge (ESU x 10^10)
                -4.8033
    Dipole Moment (Debye)
         X       0.0060      Y      14.9528      Z      -0.0015
       Tot      14.9528
    Quadrupole Moments (Debye-Ang)
        XX    -205.6552     XY      -0.0124     YY    -171.9732
        XZ     -14.3479     YZ      -0.0011     ZZ    -187.8131

 Total job time:  196.61s(wall), 1455.48s(cpu)
        *  Thank you very much for using Q-Chem.  Have a nice day.  *
