 Q-Chem 5.4, Q-Chem, Inc., Pleasanton, CA (2021)
 Q-Chem 5.4.0 for Intel X86 EM64T Linux

User input:
--------------------------------------------------------------
$molecule
-2 1
C                 -1.3928500000      0.2610430000     -0.2008680000
C                 -0.9349420000     -1.0479310000     -0.3315330000
C                  0.4289150000     -1.4079870000     -0.0224150000
C                  1.3110810000     -0.3237500000      0.3402100000
C                  0.8895100000      1.0034880000      0.3085870000
C                 -0.4926650000      1.3543260000      0.0812590000
O                 -0.9018880000      2.5803930000      0.1275760000
O                  0.8379290000     -2.6341450000     -0.0679870000
C                  1.8619380000      2.1494900000      0.4850190000
C                  2.7083640000     -0.7022330000      0.7810080000
C                  3.6582920000      0.4635580000      0.9662900000
C                  3.2587160000      1.7435470000      0.9091250000
C                 -2.8616980000      0.6038570000     -0.3228310000
C                 -3.7446910000     -0.5280550000     -0.8073230000
C                 -3.2981690000     -1.7845300000     -0.9597190000
C                 -1.8354520000     -2.1576480000     -0.8292160000
H                  1.4472750000      2.8356710000      1.2405430000
C                  1.9439600000      2.9795920000     -0.8284970000
H                  3.1298780000     -1.3870130000      0.0280300000
C                  2.6415270000     -1.5259880000      2.0992980000
C                  5.0954320000      0.0838030000      1.2816250000
C                  4.2031610000      2.8944760000      1.2126870000
C                 -5.1965210000     -0.1553790000     -1.0565930000
C                 -4.2265810000     -2.9273270000     -1.3351560000
C                 -1.3154760000     -2.6861820000     -2.1971460000
H                  2.3797990000      2.3685760000     -1.6267980000
H                  2.5627830000      3.8792990000     -0.7064420000
H                  0.9340420000      3.2828400000     -1.1071320000
H                  2.2568190000     -0.8975970000      2.9102730000
H                  3.6293350000     -1.9048480000      2.3959890000
H                  1.9729570000     -2.3731710000      1.9416610000
H                  5.3359200000     -0.8891200000      0.8405560000
H                  5.2824240000     -0.0073070000      2.3619050000
H                  5.8147020000      0.8094170000      0.8910540000
H                  4.9410100000      2.6387790000      1.9785640000
H                  3.6401420000      3.7615170000      1.5735860000
H                  4.7607150000      3.2303180000      0.3257800000
H                 -5.2733440000      0.8985890000     -1.3433320000
H                 -5.8262510000     -0.2836510000     -0.1637060000
H                 -5.6485940000     -0.7483620000     -1.8568350000
H                 -5.2302680000     -2.8046610000     -0.9181030000
H                 -3.8284610000     -3.8769930000     -0.9628020000
H                 -4.3402300000     -3.0407370000     -2.4234880000
C                 -3.3970810000      1.1262980000      1.0415410000
H                 -2.9574200000      1.4515920000     -1.0197960000
H                 -1.7468430000     -3.0070720000     -0.1333420000
H                 -1.4008810000     -1.8996610000     -2.9552210000
H                 -1.8850970000     -3.5603040000     -2.5418100000
H                 -0.2694960000     -2.9721110000     -2.0800830000
H                 -3.3619730000      0.3229300000      1.7858130000
H                 -4.4343460000      1.4808830000      0.9659520000
H                 -2.7651840000      1.9545980000      1.3643030000
$end
$rem
MAX_SCF_CYCLES=200
BASIS  =  6-311++G(d,p)
GUI  =  2
JOB_TYPE  =  SP
METHOD  =  B3LYP
SOLVENT_METHOD = COSMO
$end
$solvent
dielectric 37.219
opticaldielectric 1.43
$end

--------------------------------------------------------------

             Standard Nuclear Orientation (Angstroms)
    I     Atom           X                Y                Z
 ----------------------------------------------------------------
    1      C       1.2261093135    -0.6948808238     0.0431198049
    2      C       1.2260472851     0.6954982303    -0.0406184388
    3      C      -0.0001421235     1.4570719663     0.0013953277
    4      C      -1.2261655186     0.6952051845     0.0427384763
    5      C      -1.2260098839    -0.6952261220    -0.0408293909
    6      C       0.0001408095    -1.4567624521     0.0014783811
    7      O       0.0003554354    -2.7501490286     0.0018450410
    8      O      -0.0003160822     2.7504522278     0.0018066738
    9      C      -2.5089745178    -1.4804849455    -0.2064656732
   10      C      -2.5094407430     1.4801323753     0.2071952906
   11      C      -3.7796774534     0.6686840283     0.0528853423
   12      C      -3.7795532536    -0.6690906540    -0.0550940126
   13      C       2.5092999104    -1.4799629835     0.2073719086
   14      C       3.7797025995    -0.6688247845     0.0532104949
   15      C       3.7796977378     0.6689566192    -0.0548486504
   16      C       2.5091686324     1.4805255982    -0.2061783624
   17      H      -2.5132500299    -2.2889931669     0.5418006289
   18      C      -2.5163310827    -2.1947846768    -1.5887981209
   19      H      -2.5125234176     2.2893879887    -0.5402466257
   20      C      -2.5191529042     2.1930463295     1.5901585499
   21      C      -5.0691431439     1.4718825936     0.0871154397
   22      C      -5.0687855772    -1.4723908720    -0.0918715169
   23      C       5.0689293634    -1.4723072490     0.0870271085
   24      C       5.0690141448     1.4721737857    -0.0921602018
   25      C       2.5166457534     2.1946642909    -1.5885335030
   26      H      -2.5437686508    -1.4493179574    -2.3913610299
   27      H      -3.3860687320    -2.8564169739    -1.7033020029
   28      H      -1.6073188886    -2.7916781172    -1.6721421754
   29      H      -2.5471750727     1.4468233563     2.3919827058
   30      H      -3.3894992067     2.8539891945     1.7040749090
   31      H      -1.6106070695     2.7904209939     1.6752601411
   32      H      -4.8941027022     2.4859733761    -0.2869650776
   33      H      -5.4748747176     1.5789494676     1.1040670084
   34      H      -5.8560685862     1.0252924362    -0.5274708404
   35      H      -5.8582001052    -1.0239344332     0.5181130789
   36      H      -4.8950472976    -2.4852284374     0.2862470551
   37      H      -5.4702849516    -1.5829390471    -1.1101237900
   38      H       4.8939151765    -2.4855911268    -0.2892645201
   39      H       5.4735872569    -1.5815754206     1.1041668381
   40      H       5.8564301927    -1.0246087141    -0.5259937393
   41      H       5.8586174968     1.0236983158     0.5175643637
   42      H       4.8955492840     2.4851184586     0.2858154311
   43      H       5.4700972333     1.5824744592    -1.1105955621
   44      C       2.5187275699    -2.1930701514     1.5902962723
   45      H       2.5122296938    -2.2891129427    -0.5401876560
   46      H       2.5135744444     2.2890665962     0.5420564629
   47      H       2.5430718444     1.4489832024    -2.3909351350
   48      H       3.3869446519     2.8555174331    -1.7034403310
   49      H       1.6080910320     2.7922889464    -1.6716381879
   50      H       2.5471053542    -1.4468295093     2.3921024400
   51      H       3.3887196342    -2.8545027965     1.7042417123
   52      H       1.6098997983    -2.7900128970     1.6753930248
 ----------------------------------------------------------------

   13   -1005.8809286656      4.26e-06  Convergence criterion met
 Total energy in the final basis set =    -1005.8809286656
    5   -1006.1383046578      6.73e-06  Convergence criterion met
 Total energy in the final basis set =    -1006.1383046578

                    Orbital Energies (a.u.)
 --------------------------------------------------------------

 Alpha MOs
 -- Occupied --
-19.0033 -19.0032 -10.1503 -10.1503 -10.1461 -10.1461 -10.1461 -10.1460
-10.1457 -10.1457 -10.1457 -10.1457 -10.1454 -10.1454 -10.1446 -10.1446
-10.1314 -10.1314 -10.1314 -10.1313 -10.1114 -10.1114 -10.1108 -10.1108
 -0.9229  -0.9193  -0.8205  -0.8193  -0.7622  -0.7585  -0.7562  -0.7385
 -0.6998  -0.6884  -0.6881  -0.6683  -0.6479  -0.6348  -0.6302  -0.6123
 -0.5810  -0.5728  -0.5503  -0.5347  -0.4992  -0.4683  -0.4646  -0.4513
 -0.4397  -0.4298  -0.4291  -0.4178  -0.4121  -0.4053  -0.4021  -0.3923
 -0.3878  -0.3871  -0.3827  -0.3822  -0.3794  -0.3751  -0.3724  -0.3648
 -0.3647  -0.3619  -0.3584  -0.3556  -0.3470  -0.3442  -0.3398  -0.3354
 -0.3216  -0.3214  -0.3209  -0.3180  -0.3028  -0.3014  -0.2932  -0.2831
 -0.2826  -0.2712  -0.2124  -0.2104  -0.2048  -0.1861  -0.1818  -0.1744
 -0.1020

          Ground-State Mulliken Net Atomic Charges

     Atom                 Charge (a.u.)
  ----------------------------------------
      1 C                     0.280341
      2 C                     0.280551
      3 C                    -0.573230
      4 C                     0.281837
      5 C                     0.280150
      6 C                    -0.571469
      7 O                    -0.698870
      8 O                    -0.698977
      9 C                     0.106650
     10 C                     0.106018
     11 C                     0.118592
     12 C                     0.119411
     13 C                     0.106353
     14 C                     0.120224
     15 C                     0.118375
     16 C                     0.106820
     17 H                     0.167611
     18 C                    -0.822574
     19 H                     0.167477
     20 C                    -0.822092
     21 C                    -0.680999
     22 C                    -0.681513
     23 C                    -0.681253
     24 C                    -0.681135
     25 C                    -0.822410
     26 H                     0.133151
     27 H                     0.130798
     28 H                     0.193194
     29 H                     0.133039
     30 H                     0.130896
     31 H                     0.193249
     32 H                     0.161869
     33 H                     0.187758
     34 H                     0.158633
     35 H                     0.158604
     36 H                     0.161890
     37 H                     0.187601
     38 H                     0.161973
     39 H                     0.187721
     40 H                     0.158518
     41 H                     0.158553
     42 H                     0.162017
     43 H                     0.187593
     44 C                    -0.821640
     45 H                     0.167304
     46 H                     0.167452
     47 H                     0.133131
     48 H                     0.130696
     49 H                     0.193194
     50 H                     0.132932
     51 H                     0.130752
     52 H                     0.193221
  ----------------------------------------
  Sum of atomic charges =    -2.000010

                    Cartesian Multipole Moments
 -----------------------------------------------------------------
    Charge (ESU x 10^10)
                -9.6065
    Dipole Moment (Debye)
         X      -0.0003      Y      -0.0030      Z      -0.0145
       Tot       0.0148
    Quadrupole Moments (Debye-Ang)
        XX    -169.5175     XY       0.0009     YY    -218.7103
        XZ      -0.0010     YZ       0.0013     ZZ    -163.8360

 Total job time:  321.95s(wall), 2403.89s(cpu)
        *  Thank you very much for using Q-Chem.  Have a nice day.  *
