 Gaussian 16, Revision A.03,
 Gaussian 16:  ES64L-G16RevA.03 25-Dec-2016

 --------------------------------------
 #P UB3LYP/6-311++G(d,p) nosym opt freq
 --------------------------------------

 -------
 Reduced
 -------
 Symbolic Z-matrix:
 Charge = -2 Multiplicity = 1

 SCF Done:  E(UB3LYP) =  -1005.88057435     A.U. after   31 cycles
 Optimization completed.
    -- Stationary point found.
 Normal termination of Gaussian 16 at Sat Jan  6 06:47:02 2024.

 ----------------------------------------------------------------------
 #P Geom=AllCheck Guess=TCheck SCRF=Check GenChk UB3LYP/6-311++G(d,p) F
 req
 ----------------------------------------------------------------------

 Structure from the checkpoint file:  "055-an.chk"
 -------
 Reduced
 -------
 Charge = -2 Multiplicity = 1

                          Input orientation:
 ---------------------------------------------------------------------
 Center     Atomic      Atomic             Coordinates (Angstroms)
 Number     Number       Type             X           Y           Z
 ---------------------------------------------------------------------
      1          6           0       -1.392850    0.261043   -0.200868
      2          6           0       -0.934942   -1.047931   -0.331533
      3          6           0        0.428915   -1.407987   -0.022415
      4          6           0        1.311081   -0.323750    0.340210
      5          6           0        0.889510    1.003488    0.308587
      6          6           0       -0.492665    1.354326    0.081259
      7          8           0       -0.901888    2.580393    0.127576
      8          8           0        0.837929   -2.634145   -0.067987
      9          6           0        1.861938    2.149490    0.485019
     10          6           0        2.708364   -0.702233    0.781008
     11          6           0        3.658292    0.463558    0.966290
     12          6           0        3.258716    1.743547    0.909125
     13          6           0       -2.861698    0.603857   -0.322831
     14          6           0       -3.744691   -0.528055   -0.807323
     15          6           0       -3.298169   -1.784530   -0.959719
     16          6           0       -1.835452   -2.157648   -0.829216
     17          1           0        1.447275    2.835671    1.240543
     18          6           0        1.943960    2.979592   -0.828497
     19          1           0        3.129878   -1.387013    0.028030
     20          6           0        2.641527   -1.525988    2.099298
     21          6           0        5.095432    0.083803    1.281625
     22          6           0        4.203161    2.894476    1.212687
     23          6           0       -5.196521   -0.155379   -1.056593
     24          6           0       -4.226581   -2.927327   -1.335156
     25          6           0       -1.315476   -2.686182   -2.197146
     26          1           0        2.379799    2.368576   -1.626798
     27          1           0        2.562783    3.879299   -0.706442
     28          1           0        0.934042    3.282840   -1.107132
     29          1           0        2.256819   -0.897597    2.910273
     30          1           0        3.629335   -1.904848    2.395989
     31          1           0        1.972957   -2.373171    1.941661
     32          1           0        5.335920   -0.889120    0.840556
     33          1           0        5.282424   -0.007307    2.361905
     34          1           0        5.814702    0.809417    0.891054
     35          1           0        4.941010    2.638779    1.978564
     36          1           0        3.640142    3.761517    1.573586
     37          1           0        4.760715    3.230318    0.325780
     38          1           0       -5.273344    0.898589   -1.343332
     39          1           0       -5.826251   -0.283651   -0.163706
     40          1           0       -5.648594   -0.748362   -1.856835
     41          1           0       -5.230268   -2.804661   -0.918103
     42          1           0       -3.828461   -3.876993   -0.962802
     43          1           0       -4.340230   -3.040737   -2.423488
     44          6           0       -3.397081    1.126298    1.041541
     45          1           0       -2.957420    1.451592   -1.019796
     46          1           0       -1.746843   -3.007072   -0.133342
     47          1           0       -1.400881   -1.899661   -2.955221
     48          1           0       -1.885097   -3.560304   -2.541810
     49          1           0       -0.269496   -2.972111   -2.080083
     50          1           0       -3.361973    0.322930    1.785813
     51          1           0       -4.434346    1.480883    0.965952
     52          1           0       -2.765184    1.954598    1.364303
 ---------------------------------------------------------------------

 SCF Done:  E(UB3LYP) =  -1005.88057435     A.U. after    4 cycles

 Alpha  occ. eigenvalues --  -18.79702 -18.79701  -9.97434  -9.97434  -9.97433
 Alpha  occ. eigenvalues --   -9.97433  -9.95952  -9.95951  -9.95872  -9.95871
 Alpha  occ. eigenvalues --   -9.95097  -9.95096  -9.95095  -9.95094  -9.95058
 Alpha  occ. eigenvalues --   -9.95056  -9.93821  -9.93820  -9.93818  -9.93818
 Alpha  occ. eigenvalues --   -9.91221  -9.91219  -9.91165  -9.91165  -0.71430
 Alpha  occ. eigenvalues --   -0.71005  -0.63036  -0.63012  -0.56838  -0.56780
 Alpha  occ. eigenvalues --   -0.56572  -0.55024  -0.50884  -0.50792  -0.50764
 Alpha  occ. eigenvalues --   -0.47365  -0.46407  -0.45155  -0.43165  -0.41794
 Alpha  occ. eigenvalues --   -0.38725  -0.38178  -0.35735  -0.34376  -0.30215
 Alpha  occ. eigenvalues --   -0.28013  -0.27147  -0.26367  -0.24922  -0.24628
 Alpha  occ. eigenvalues --   -0.24243  -0.23062  -0.22323  -0.22260  -0.21421
 Alpha  occ. eigenvalues --   -0.21346  -0.21148  -0.20206  -0.19660  -0.19653
 Alpha  occ. eigenvalues --   -0.19299  -0.19286  -0.19038  -0.18127  -0.17531
 Alpha  occ. eigenvalues --   -0.16923  -0.16315  -0.15995  -0.15545  -0.14549
 Alpha  occ. eigenvalues --   -0.14091  -0.13608  -0.12696  -0.12605  -0.12507
 Alpha  occ. eigenvalues --   -0.12296  -0.10716  -0.10468  -0.10119  -0.08123
 Alpha  occ. eigenvalues --   -0.07676  -0.07426  -0.02226  -0.01880   0.00337
 Alpha  occ. eigenvalues --    0.02048   0.02554   0.03439   0.11355
 Alpha virt. eigenvalues --    0.12935   0.13164   0.14837   0.14894   0.15917
 Alpha virt. eigenvalues --    0.16011   0.16509   0.16831   0.17900   0.17924
 Alpha virt. eigenvalues --    0.18422   0.18572   0.18617   0.19435   0.19612

  Beta  occ. eigenvalues --  -18.79702 -18.79701  -9.97434  -9.97434  -9.97433
  Beta  occ. eigenvalues --   -9.97433  -9.95952  -9.95951  -9.95872  -9.95871
  Beta  occ. eigenvalues --   -9.95097  -9.95096  -9.95095  -9.95094  -9.95058
  Beta  occ. eigenvalues --   -9.95056  -9.93821  -9.93820  -9.93818  -9.93818
  Beta  occ. eigenvalues --   -9.91221  -9.91219  -9.91165  -9.91165  -0.71430
  Beta  occ. eigenvalues --   -0.71005  -0.63036  -0.63012  -0.56838  -0.56780
  Beta  occ. eigenvalues --   -0.56572  -0.55024  -0.50884  -0.50792  -0.50764
  Beta  occ. eigenvalues --   -0.47365  -0.46407  -0.45155  -0.43165  -0.41794
  Beta  occ. eigenvalues --   -0.38725  -0.38178  -0.35735  -0.34376  -0.30215
  Beta  occ. eigenvalues --   -0.28013  -0.27147  -0.26367  -0.24922  -0.24628
  Beta  occ. eigenvalues --   -0.24243  -0.23062  -0.22323  -0.22260  -0.21421
  Beta  occ. eigenvalues --   -0.21346  -0.21148  -0.20206  -0.19660  -0.19653
  Beta  occ. eigenvalues --   -0.19299  -0.19286  -0.19038  -0.18127  -0.17531
  Beta  occ. eigenvalues --   -0.16923  -0.16315  -0.15995  -0.15545  -0.14549
  Beta  occ. eigenvalues --   -0.14091  -0.13608  -0.12696  -0.12605  -0.12507
  Beta  occ. eigenvalues --   -0.12296  -0.10716  -0.10468  -0.10119  -0.08123
  Beta  occ. eigenvalues --   -0.07676  -0.07426  -0.02226  -0.01880   0.00337
  Beta  occ. eigenvalues --    0.02048   0.02554   0.03439   0.11355
  Beta virt. eigenvalues --    0.12935   0.13164   0.14837   0.14894   0.15917
  Beta virt. eigenvalues --    0.16011   0.16509   0.16831   0.17900   0.17924
  Beta virt. eigenvalues --    0.18422   0.18572   0.18617   0.19435   0.19612

 Mulliken charges and spin densities:
               1          2
     1  C    0.683906   0.000000
     2  C    0.684513  -0.000000
     3  C   -0.704274   0.000000
     4  C    0.683988   0.000000
     5  C    0.684105   0.000000
     6  C   -0.702992  -0.000000
     7  O   -0.446195   0.000000
     8  O   -0.446200   0.000000
     9  C    0.057878   0.000000
    10  C    0.058557   0.000000
    11  C   -0.579028  -0.000000
    12  C   -0.579052  -0.000000
    13  C    0.058259   0.000000
    14  C   -0.578632  -0.000000
    15  C   -0.579122  -0.000000
    16  C    0.058241   0.000000
    17  H    0.194568   0.000000
    18  C   -0.657261   0.000000
    19  H    0.194525   0.000000
    20  C   -0.656612   0.000000
    21  C    0.117034   0.000000
    22  C    0.115830   0.000000
    23  C    0.117326   0.000000
    24  C    0.115792   0.000000
    25  C   -0.657834   0.000000
    26  H    0.096773  -0.000000
    27  H   -0.024250  -0.000000
    28  H    0.250815   0.000000
    29  H    0.096713  -0.000000
    30  H   -0.024399  -0.000000
    31  H    0.250845   0.000000
    32  H    0.012402  -0.000000
    33  H    0.035025  -0.000000
    34  H   -0.112876  -0.000000
    35  H   -0.114039  -0.000000
    36  H    0.012276  -0.000000
    37  H    0.035896  -0.000000
    38  H    0.012681  -0.000000
    39  H    0.035163  -0.000000
    40  H   -0.113350  -0.000000
    41  H   -0.113975  -0.000000
    42  H    0.012523  -0.000000
    43  H    0.035638  -0.000000
    44  C   -0.656973   0.000000
    45  H    0.194580   0.000000
    46  H    0.194579   0.000000
    47  H    0.096784  -0.000000
    48  H   -0.024181  -0.000000
    49  H    0.250826   0.000000
    50  H    0.096792  -0.000000
    51  H   -0.024405  -0.000000
    52  H    0.250818   0.000000
 Sum of Mulliken charges =  -2.00000  -0.00000

 Dipole moment (field-independent basis, Debye):
    X=              0.3043    Y=              0.2561    Z=             -0.2744  Tot=              0.4832
 Quadrupole moment (field-independent basis, Debye-Ang):
   XX=           -276.7547   YY=           -230.1976   ZZ=           -181.6458
   XY=            -16.2751   XZ=            -24.6772   YZ=             -9.8553

  Exact polarizability:7018.3481812.1061972.3611622.336 549.5011140.453
 Approx polarizability:7796.0192113.4181930.2451839.138 616.8151150.801

                      1                      2                      3
                      A                      A                      A
 Frequencies --     35.3049                57.1016                66.8681
 Red. masses --      3.8968                 3.1102                 2.7817
 Frc consts  --      0.0029                 0.0060                 0.0073
 IR Inten    --      1.3338                 0.0009                 0.2225

                      4                      5                      6
                      A                      A                      A
 Frequencies --     77.1732               101.9794               110.1390
 Red. masses --      2.8827                 3.3553                 1.1114
 Frc consts  --      0.0101                 0.0206                 0.0079
 IR Inten    --      0.0713                 0.4276                 1.0273

                      7                      8                      9
                      A                      A                      A
 Frequencies --    114.0062               118.8727               121.7898
 Red. masses --      1.1740                 1.0939                 1.0657
 Frc consts  --      0.0090                 0.0091                 0.0093
 IR Inten    --     14.0298                 1.0152                 2.7123

                     10                     11                     12
                      A                      A                      A
 Frequencies --    128.9021               132.7926               141.3691
 Red. masses --      2.8065                 3.0990                 3.2459
 Frc consts  --      0.0275                 0.0322                 0.0382
 IR Inten    --      0.0056                 1.9748                 3.2735

                     13                     14                     15
                      A                      A                      A
 Frequencies --    155.0569               166.1935               219.8250
 Red. masses --      6.8051                 3.5478                 1.7510
 Frc consts  --      0.0964                 0.0577                 0.0499
 IR Inten    --      3.9018                 0.0119                 0.3164

                     16                     17                     18
                      A                      A                      A
 Frequencies --    221.9757               223.8481               248.6520
 Red. masses --      2.6490                 1.5025                 1.1766
 Frc consts  --      0.0769                 0.0444                 0.0429
 IR Inten    --      0.0095                 2.3900                 1.5279

                     19                     20                     21
                      A                      A                      A
 Frequencies --    253.7448               254.0881               281.8586
 Red. masses --      1.2662                 4.0996                 1.3921
 Frc consts  --      0.0480                 0.1559                 0.0652
 IR Inten    --      0.0474                 1.6085                 0.0242

                     22                     23                     24
                      A                      A                      A
 Frequencies --    283.7577               292.9357               294.6591
 Red. masses --      3.8140                 1.5428                 3.2022
 Frc consts  --      0.1809                 0.0780                 0.1638
 IR Inten    --      1.1051                 0.2723                 0.0074

                     25                     26                     27
                      A                      A                      A
 Frequencies --    314.7095               331.9295               340.2124
 Red. masses --      2.3596                 2.5181                 5.7500
 Frc consts  --      0.1377                 0.1635                 0.3921
 IR Inten    --     53.6718                 0.0022                 0.1991

                     28                     29                     30
                      A                      A                      A
 Frequencies --    341.6132               351.9762               354.3233
 Red. masses --      2.9756                 3.4267                 3.9315
 Frc consts  --      0.2046                 0.2501                 0.2908
 IR Inten    --    173.6767                 0.0141                 0.5043

                     31                     32                     33
                      A                      A                      A
 Frequencies --    358.5290               365.4133               435.8552
 Red. masses --      2.4717                 4.2446                 4.3568
 Frc consts  --      0.1872                 0.3339                 0.4876
 IR Inten    --      0.1179               100.6007                 0.0045

                     34                     35                     36
                      A                      A                      A
 Frequencies --    438.9068               471.1038               482.4292
 Red. masses --      6.2639                11.8842                 3.6642
 Frc consts  --      0.7110                 1.5540                 0.5025
 IR Inten    --     52.2312                 0.0020                 1.8529

                     37                     38                     39
                      A                      A                      A
 Frequencies --    530.8191               534.8258               541.7943
 Red. masses --      4.2240                 3.0248                 4.6825
 Frc consts  --      0.7012                 0.5098                 0.8098
 IR Inten    --     18.0056                 1.8893                46.3045

                     40                     41                     42
                      A                      A                      A
 Frequencies --    576.0372               587.9253               595.2729
 Red. masses --      4.2580                 2.8503                 4.2597
 Frc consts  --      0.8324                 0.5805                 0.8893
 IR Inten    --      0.0001                 7.3929                 0.8358

                     43                     44                     45
                      A                      A                      A
 Frequencies --    596.0817               598.5671               683.5978
 Red. masses --      4.4320                 3.8562                 3.4278
 Frc consts  --      0.9278                 0.8140                 0.9438
 IR Inten    --      0.0087                 6.5581                10.9411

                     46                     47                     48
                      A                      A                      A
 Frequencies --    694.2858               710.8740               726.8535
 Red. masses --      2.9233                 3.0873                 2.8455
 Frc consts  --      0.8302                 0.9192                 0.8857
 IR Inten    --      1.0387                 0.0001                 0.0007

                     49                     50                     51
                      A                      A                      A
 Frequencies --    749.2443               773.1032               800.7507
 Red. masses --      6.6407                 5.5519                 7.2580
 Frc consts  --      2.1964                 1.9551                 2.7420
 IR Inten    --      2.4238                 0.1057                32.4846

                     52                     53                     54
                      A                      A                      A
 Frequencies --    851.8238               855.4112               864.7915
 Red. masses --      2.3810                 2.5223                 2.2206
 Frc consts  --      1.0179                 1.0874                 0.9784
 IR Inten    --      6.5538               334.0006                15.8166

                     55                     56                     57
                      A                      A                      A
 Frequencies --    930.2174               940.2958               954.3306
 Red. masses --      2.6247                 2.5697                 1.8170
 Frc consts  --      1.3382                 1.3387                 0.9750
 IR Inten    --      0.0097                 0.0125                12.2790

                     58                     59                     60
                      A                      A                      A
 Frequencies --    964.7695               989.8885               990.7289
 Red. masses --      2.1633                 1.3185                 1.3050
 Frc consts  --      1.1863                 0.7612                 0.7547
 IR Inten    --    274.6662                 8.7150                 5.0274

                     61                     62                     63
                      A                      A                      A
 Frequencies --    991.1849               994.9661              1021.2958
 Red. masses --      1.4737                 1.5636                 2.7711
 Frc consts  --      0.8530                 0.9120                 1.7030
 IR Inten    --      0.0469                 2.4457                 1.6256

                     64                     65                     66
                      A                      A                      A
 Frequencies --   1026.4549              1027.9304              1035.0306
 Red. masses --      1.4176                 2.4090                 1.4763
 Frc consts  --      0.8800                 1.4997                 0.9318
 IR Inten    --      0.0020                 0.3412                56.1289

                     67                     68                     69
                      A                      A                      A
 Frequencies --   1049.1588              1066.9017              1068.0798
 Red. masses --      1.8711                 1.7654                 1.8674
 Frc consts  --      1.2135                 1.1840                 1.2552
 IR Inten    --      0.0044                 0.2549                 3.2871

                     70                     71                     72
                      A                      A                      A
 Frequencies --   1071.7922              1077.6620              1079.4494
 Red. masses --      1.9288                 1.9112                 2.0063
 Frc consts  --      1.3055                 1.3077                 1.3774
 IR Inten    --      4.8889                 5.7547                 0.0040

                     73                     74                     75
                      A                      A                      A
 Frequencies --   1085.3117              1110.9360              1132.4209
 Red. masses --      1.9508                 2.7271                 4.1521
 Frc consts  --      1.3539                 1.9830                 3.1371
 IR Inten    --     59.3272                 1.0304                 0.0029

                     76                     77                     78
                      A                      A                      A
 Frequencies --   1146.2589              1149.1209              1151.8299
 Red. masses --      1.7707                 2.5295                 1.6677
 Frc consts  --      1.3708                 1.9680                 1.3036
 IR Inten    --    116.0551                 1.1630                 0.1383

                     79                     80                     81
                      A                      A                      A
 Frequencies --   1152.6080              1190.8487              1216.9089
 Red. masses --      3.2890                 7.5811                 1.4685
 Frc consts  --      2.5744                 6.3343                 1.2812
 IR Inten    --     15.8698               165.1011                 0.1349

                     82                     83                     84
                      A                      A                      A
 Frequencies --   1225.8542              1257.7808              1300.3571
 Red. masses --      1.6554                 5.1551                 1.2671
 Frc consts  --      1.4657                 4.8051                 1.2624
 IR Inten    --     15.1977                38.5198                 4.6548

                     85                     86                     87
                      A                      A                      A
 Frequencies --   1300.6691              1301.0456              1301.1880
 Red. masses --      1.3210                 1.3177                 1.3049
 Frc consts  --      1.3167                 1.3142                 1.3017
 IR Inten    --     12.7364                 8.6257                13.3626

                     88                     89                     90
                      A                      A                      A
 Frequencies --   1326.0516              1329.2758              1337.5825
 Red. masses --      2.1438                 2.2251                 2.2634
 Frc consts  --      2.2211                 2.3165                 2.3859
 IR Inten    --      0.0006                 5.8932                 9.7129

                     91                     92                     93
                      A                      A                      A
 Frequencies --   1341.4178              1356.9701              1361.5846
 Red. masses --      1.9515                 1.3382                 1.2083
 Frc consts  --      2.0689                 1.4518                 1.3198
 IR Inten    --      0.0062                 6.0508                12.1471

                     94                     95                     96
                      A                      A                      A
 Frequencies --   1364.8720              1379.2736              1384.1762
 Red. masses --      1.3295                 2.3622                 1.4332
 Frc consts  --      1.4592                 2.6476                 1.6179
 IR Inten    --     16.5579                 4.1437               257.8611

                     97                     98                     99
                      A                      A                      A
 Frequencies --   1384.3525              1385.0135              1393.2049
 Red. masses --      1.3885                 1.9225                 1.2121
 Frc consts  --      1.5678                 2.1728                 1.3862
 IR Inten    --    166.2340                 1.0875              2587.3768

                    100                    101                    102
                      A                      A                      A
 Frequencies --   1398.2740              1437.6512              1463.3372
 Red. masses --      1.3535                 4.5453                 2.1471
 Frc consts  --      1.5592                 5.5350                 2.7089
 IR Inten    --      0.4613               211.5491                 0.0208

                    103                    104                    105
                      A                      A                      A
 Frequencies --   1473.5347              1474.7153              1475.8924
 Red. masses --      1.0687                 1.0629                 1.0936
 Frc consts  --      1.3672                 1.3620                 1.4036
 IR Inten    --    803.5000                 1.5022                 4.2807

                    106                    107                    108
                      A                      A                      A
 Frequencies --   1477.7615              1478.0756              1480.8115
 Red. masses --      1.1502                 1.3535                 1.0956
 Frc consts  --      1.4798                 1.7423                 1.4155
 IR Inten    --    121.2908                48.4082                 0.0279

                    109                    110                    111
                      A                      A                      A
 Frequencies --   1481.1057              1488.0362              1488.5027
 Red. masses --      4.5685                 1.2051                 1.1175
 Frc consts  --      5.9046                 1.5722                 1.4588
 IR Inten    --     18.3859                 5.9652                 2.5908

                    112                    113                    114
                      A                      A                      A
 Frequencies --   1492.9610              1493.1860              1505.6622
 Red. masses --      1.0561                 1.0542                 1.0523
 Frc consts  --      1.3870                 1.3849                 1.4055
 IR Inten    --      1.9384                 2.0263                50.5526

                    115                    116                    117
                      A                      A                      A
 Frequencies --   1505.9038              1513.0310              1513.2774
 Red. masses --      1.0513                 1.0519                 1.0553
 Frc consts  --      1.4046                 1.4188                 1.4239
 IR Inten    --     31.1170                 2.3345                 0.6029

                    118                    119                    120
                      A                      A                      A
 Frequencies --   1513.3673              1513.7110              1574.9796
 Red. masses --      1.0508                 1.0561                 8.1819
 Frc consts  --      1.4179                 1.4258                11.9579
 IR Inten    --      1.2954                13.2168                 0.0076

                    121                    122                    123
                      A                      A                      A
 Frequencies --   1712.5573              1714.1716              2945.3211
 Red. masses --      8.2273                 8.2749                 1.0807
 Frc consts  --     14.2166                14.3258                 5.5235
 IR Inten    --      1.0231                 0.0057                 5.3892

                    124                    125                    126
                      A                      A                      A
 Frequencies --   2945.7519              2945.9839              2946.1970
 Red. masses --      1.0806                 1.0804                 1.0802
 Frc consts  --      5.5244                 5.5244                 5.5241
 IR Inten    --      6.5473                90.0570                60.2758

                    127                    128                    129
                      A                      A                      A
 Frequencies --   2966.7513              2966.8943              2967.8410
 Red. masses --      1.0541                 1.0540                 1.0529
 Frc consts  --      5.4663                 5.4664                 5.4641
 IR Inten    --    466.4604                 2.1276                18.8273

                    130                    131                    132
                      A                      A                      A
 Frequencies --   2967.9136              2979.0197              2979.3873
 Red. masses --      1.0529                 1.0441                 1.0441
 Frc consts  --      5.4646                 5.4594                 5.4607
 IR Inten    --     24.6010                 3.0096                42.2245

                    133                    134                    135
                      A                      A                      A
 Frequencies --   2979.7351              2979.8258              3030.6684
 Red. masses --      1.0434                 1.0434                 1.0791
 Frc consts  --      5.4582                 5.4586                 5.8395
 IR Inten    --    326.4051               186.8088                32.4947

                    136                    137                    138
                      A                      A                      A
 Frequencies --   3030.7659              3036.4487              3036.5250
 Red. masses --      1.0790                 1.0783                 1.0783
 Frc consts  --      5.8397                 5.8578                 5.8580
 IR Inten    --     41.6116                 1.1939                 0.8599

                    139                    140                    141
                      A                      A                      A
 Frequencies --   3040.3894              3040.6134              3040.7854
 Red. masses --      1.0929                 1.0931                 1.0930
 Frc consts  --      5.9522                 5.9544                 5.9543
 IR Inten    --     28.4792               141.0755                 9.9046

                    142                    143                    144
                      A                      A                      A
 Frequencies --   3040.9598              3062.8271              3062.9418
 Red. masses --      1.0930                 1.1016                 1.1016
 Frc consts  --      5.9549                 6.0885                 6.0888
 IR Inten    --      0.9805                 3.9582                 3.3308

                    145                    146                    147
                      A                      A                      A
 Frequencies --   3071.2783              3071.4081              3106.6870
 Red. masses --      1.0997                 1.0998                 1.0983
 Frc consts  --      6.1119                 6.1125                 6.2456
 IR Inten    --    178.0711                 0.0081                14.3593

                    148                    149                    150
                      A                      A                      A
 Frequencies --   3106.7351              3106.9423              3107.1508
 Red. masses --      1.0984                 1.0983                 1.0983
 Frc consts  --      6.2461                 6.2468                 6.2474
 IR Inten    --      0.2280                 0.2501                 2.1200

 - Thermochemistry -
 -------------------
 Temperature   298.150 Kelvin.  Pressure   1.00000 Atm.
 Atom     1 has atomic number  6 and mass  12.00000

 Molecular mass:   324.20893 amu.
 Principal axes and moments of inertia in atomic units:
                           1         2         3
     Eigenvalues --  3886.84866********************
           X            0.92336  -0.31618  -0.21780
           Y            0.29891   0.94803  -0.10904
           Z            0.24096   0.03558   0.96988
 This molecule is an asymmetric top.
 Rotational symmetry number  1.
 Warning -- assumption of classical behavior for rotation
           may cause significant error
 Rotational temperatures (Kelvin)      0.02228     0.00749     0.00611
 Rotational constants (GHZ):           0.46432     0.15602     0.12722
 Zero-point vibrational energy    1153458.8 (Joules/Mol)
                                  275.68328 (Kcal/Mol)
 Warning -- explicit consideration of  44 degrees of freedom as
           vibrations may cause significant error
 Vibrational temperatures:     50.80    82.16    96.21   111.04   146.73
          (Kelvin)            158.47   164.03   171.03   175.23   185.46
                              191.06   203.40   223.09   239.12   316.28
                              319.37   322.07   357.75   365.08   365.58
                              405.53   408.26   421.47   423.95   452.80
                              477.57   489.49   491.51   506.42   509.79
                              515.84   525.75   627.10   631.49   677.81
                              694.11   763.73   769.50   779.52   828.79
                              845.89   856.46   857.63   861.20   983.54
                              998.92  1022.79  1045.78  1078.00  1112.32
                             1152.10  1225.58  1230.75  1244.24  1338.38
                             1352.88  1373.07  1388.09  1424.23  1425.44
                             1426.09  1431.53  1469.42  1476.84  1478.96
                             1489.18  1509.51  1535.03  1536.73  1542.07
                             1550.52  1553.09  1561.52  1598.39  1629.30
                             1649.21  1653.33  1657.23  1658.35  1713.37
                             1750.86  1763.73  1809.67  1870.92  1871.37
                             1871.91  1872.12  1907.89  1912.53  1924.48
                             1930.00  1952.38  1959.02  1963.75  1984.47
                             1991.52  1991.77  1992.73  2004.51  2011.80
                             2068.46  2105.42  2120.09  2121.79  2123.48
                             2126.17  2126.62  2130.56  2130.98  2140.95
                             2141.62  2148.04  2148.36  2166.31  2166.66
                             2176.91  2177.27  2177.40  2177.89  2266.04
                             2463.99  2466.31  4237.66  4238.28  4238.61
                             4238.92  4268.49  4268.70  4270.06  4270.17
                             4286.14  4286.67  4287.17  4287.30  4360.46
                             4360.60  4368.77  4368.88  4374.44  4374.76
                             4375.01  4375.26  4406.73  4406.89  4418.88
                             4419.07  4469.83  4469.90  4470.20  4470.50

 Zero-point correction=                           0.439329 (Hartree/Particle)
 Thermal correction to Energy=                    0.464412
 Thermal correction to Enthalpy=                  0.465356
 Thermal correction to Gibbs Free Energy=         0.387007
 Sum of electronic and zero-point Energies=          -1005.441245
 Sum of electronic and thermal Energies=             -1005.416162
 Sum of electronic and thermal Enthalpies=           -1005.415218
 Sum of electronic and thermal Free Energies=        -1005.493567

                     E (Thermal)             CV                S
                      KCal/Mol        Cal/Mol-Kelvin    Cal/Mol-Kelvin
 Total                  291.423             97.298            164.900
 Electronic               0.000              0.000              0.000
 Translational            0.889              2.981             43.224
 Rotational               0.889              2.981             34.810
 Vibrational            289.646             91.337             86.865
 Vibration     1          0.594              1.982              5.507
 Vibration     2          0.596              1.975              4.555
 Vibration     3          0.598              1.970              4.243
 Vibration     4          0.599              1.964              3.962
 Vibration     5          0.604              1.948              3.416
 Vibration     6          0.606              1.941              3.266
 Vibration     7          0.607              1.938              3.200
 Vibration     8          0.609              1.934              3.119
 Vibration     9          0.609              1.931              3.072
 Vibration    10          0.611              1.924              2.962
 Vibration    11          0.613              1.921              2.905
 Vibration    12          0.615              1.912              2.785
 Vibration    13          0.620              1.897              2.609
 Vibration    14          0.624              1.884              2.478
 Vibration    15          0.647              1.811              1.961
 Vibration    16          0.648              1.808              1.943
 Vibration    17          0.649              1.805              1.928
 Vibration    18          0.662              1.765              1.740
 Vibration    19          0.665              1.756              1.704
 Vibration    20          0.665              1.756              1.702
 Vibration    21          0.681              1.707              1.522
 Vibration    22          0.682              1.704              1.511
 Vibration    23          0.688              1.687              1.457
 Vibration    24          0.689              1.684              1.447
 Vibration    25          0.702              1.646              1.337
 Vibration    26          0.714              1.612              1.251
 Vibration    27          0.720              1.595              1.211
 Vibration    28          0.721              1.592              1.205
 Vibration    29          0.729              1.571              1.157
 Vibration    30          0.730              1.566              1.147
 Vibration    31          0.733              1.558              1.128
 Vibration    32          0.739              1.543              1.099
 Vibration    33          0.796              1.392              0.840
 Vibration    34          0.799              1.385              0.830
 Vibration    35          0.828              1.314              0.734
 Vibration    36          0.839              1.289              0.704
 Vibration    37          0.886              1.182              0.585
 Vibration    38          0.890              1.173              0.577
 Vibration    39          0.897              1.158              0.561
 Vibration    40          0.932              1.083              0.493
 Vibration    41          0.945              1.058              0.471
 Vibration    42          0.953              1.042              0.458
 Vibration    43          0.954              1.040              0.456
 Vibration    44          0.957              1.035              0.452

                           ! Non-Optimized Parameters !
 Normal termination of Gaussian 16 at Sat Jan  6 13:50:49 2024.
