 Gaussian 16, Revision A.03,
 Gaussian 16:  ES64L-G16RevA.03 25-Dec-2016

 ----------------------------------------------------------------------
 #P UB3LYP/6-311++G(d,p) nosym opt freq SCRF=(PCM,Solvent=n,n-DiMethylF
 ormamide)
 ----------------------------------------------------------------------

 --------
 Oxidized
 --------
 Symbolic Z-matrix:
 Charge =  0 Multiplicity = 1

 SCF Done:  E(UB3LYP) =  -696.170054118     A.U. after   16 cycles
 SCF Done:  E(UB3LYP) =  -696.170301180     A.U. after   12 cycles
 SCF Done:  E(UB3LYP) =  -696.170330336     A.U. after   12 cycles
 SCF Done:  E(UB3LYP) =  -696.170298993     A.U. after   12 cycles
 SCF Done:  E(UB3LYP) =  -696.170327916     A.U. after   12 cycles
 SCF Done:  E(UB3LYP) =  -696.170331030     A.U. after   11 cycles
 SCF Done:  E(UB3LYP) =  -696.170333017     A.U. after   10 cycles
 SCF Done:  E(UB3LYP) =  -696.170333065     A.U. after    9 cycles
 Optimization completed.
    -- Stationary point found.
 Normal termination of Gaussian 16 at Sun Feb 11 16:27:59 2024.

 ----------------------------------------------------------------------
 #P Geom=AllCheck Guess=TCheck SCRF=Check GenChk UB3LYP/6-311++G(d,p) F
 req
 ----------------------------------------------------------------------

 Structure from the checkpoint file:  "319.chk"
 --------
 Oxidized
 --------
 Charge =  0 Multiplicity = 1

                          Input orientation:
 ---------------------------------------------------------------------
 Center     Atomic      Atomic             Coordinates (Angstroms)
 Number     Number       Type             X           Y           Z
 ---------------------------------------------------------------------
      1          6           0       -0.934959    3.939164   -0.602813
      2          6           0       -2.065893    3.163288   -0.131401
      3          6           0       -1.910156    1.874523    0.256044
      4          6           0        0.462251    3.230814   -0.640709
      5          6           0        0.549001    1.822853   -0.187428
      6          6           0       -0.590010    1.224477    0.221443
      7          8           0        1.426309    3.857430   -1.036305
      8          8           0       -1.008632    5.102527   -0.967396
      9          6           0        1.909598    1.177405   -0.219396
     10          6           0        1.985031   -0.274234    0.257517
     11          6           0        3.409702   -0.837813    0.190560
     12          6           0        3.501526   -2.290054    0.667224
     13          6           0       -3.070566    1.039935    0.721059
     14          6           0       -3.490657   -0.027314   -0.313448
     15          6           0       -4.648827   -0.900072    0.183011
     16          6           0       -5.083924   -1.950068   -0.843150
     17          1           0       -3.032173    3.654613   -0.103075
     18          1           0       -0.558238    0.195936    0.562811
     19          1           0        2.591010    1.797307    0.376511
     20          1           0        2.292650    1.249396   -1.245001
     21          1           0        1.323349   -0.901337   -0.351923
     22          1           0        1.620547   -0.346287    1.289242
     23          1           0        4.074094   -0.211127    0.797188
     24          1           0        3.777599   -0.767096   -0.839873
     25          1           0        3.172009   -2.386113    1.706657
     26          1           0        4.527734   -2.662932    0.607651
     27          1           0        2.872622   -2.946444    0.057435
     28          1           0       -3.922521    1.687920    0.940916
     29          1           0       -2.792539    0.536496    1.655048
     30          1           0       -2.634470   -0.666182   -0.558043
     31          1           0       -3.779720    0.475729   -1.243141
     32          1           0       -5.501118   -0.258225    0.434822
     33          1           0       -4.351538   -1.397080    1.113850
     34          1           0       -5.417001   -1.479028   -1.773250
     35          1           0       -5.910560   -2.556052   -0.462191
     36          1           0       -4.260035   -2.627181   -1.089533
 ---------------------------------------------------------------------

 SCF Done:  E(UB3LYP) =  -696.170333065     A.U. after    1 cycles

 Alpha  occ. eigenvalues --  -19.14826 -19.14020 -10.28398 -10.27966 -10.22532
 Alpha  occ. eigenvalues --  -10.21026 -10.20876 -10.19002 -10.18523 -10.18232
 Alpha  occ. eigenvalues --  -10.17567 -10.17057 -10.16870 -10.16694 -10.15870
 Alpha  occ. eigenvalues --  -10.15771  -1.08523  -1.05707  -0.87694  -0.82502
 Alpha  occ. eigenvalues --   -0.80194  -0.78022  -0.74942  -0.72607  -0.70089
 Alpha  occ. eigenvalues --   -0.65847  -0.64385  -0.60110  -0.59089  -0.58555
 Alpha  occ. eigenvalues --   -0.57598  -0.52650  -0.50753  -0.48342  -0.47675
 Alpha  occ. eigenvalues --   -0.47298  -0.45778  -0.45212  -0.44961  -0.43798
 Alpha  occ. eigenvalues --   -0.42952  -0.42565  -0.42089  -0.41676  -0.39957
 Alpha  occ. eigenvalues --   -0.39565  -0.38784  -0.37572  -0.36414  -0.35887
 Alpha  occ. eigenvalues --   -0.35365  -0.34223  -0.33974  -0.33660  -0.33312
 Alpha  occ. eigenvalues --   -0.33092  -0.32302  -0.31359  -0.26423  -0.25880
 Alpha virt. eigenvalues --   -0.13790  -0.01405  -0.01132  -0.00747  -0.00053
 Alpha virt. eigenvalues --    0.00363   0.00934   0.01350   0.01556   0.02202
 Alpha virt. eigenvalues --    0.02724   0.03412   0.03649   0.04015   0.04313

  Beta  occ. eigenvalues --  -19.14826 -19.14020 -10.28398 -10.27966 -10.22532
  Beta  occ. eigenvalues --  -10.21026 -10.20876 -10.19002 -10.18523 -10.18232
  Beta  occ. eigenvalues --  -10.17567 -10.17057 -10.16870 -10.16694 -10.15870
  Beta  occ. eigenvalues --  -10.15771  -1.08523  -1.05707  -0.87694  -0.82502
  Beta  occ. eigenvalues --   -0.80194  -0.78022  -0.74942  -0.72607  -0.70089
  Beta  occ. eigenvalues --   -0.65847  -0.64385  -0.60110  -0.59089  -0.58555
  Beta  occ. eigenvalues --   -0.57598  -0.52650  -0.50753  -0.48342  -0.47675
  Beta  occ. eigenvalues --   -0.47298  -0.45778  -0.45212  -0.44961  -0.43798
  Beta  occ. eigenvalues --   -0.42952  -0.42565  -0.42089  -0.41676  -0.39957
  Beta  occ. eigenvalues --   -0.39565  -0.38784  -0.37572  -0.36414  -0.35887
  Beta  occ. eigenvalues --   -0.35365  -0.34223  -0.33974  -0.33660  -0.33312
  Beta  occ. eigenvalues --   -0.33092  -0.32302  -0.31359  -0.26423  -0.25880
  Beta virt. eigenvalues --   -0.13790  -0.01405  -0.01132  -0.00747  -0.00053
  Beta virt. eigenvalues --    0.00363   0.00934   0.01350   0.01556   0.02202
  Beta virt. eigenvalues --    0.02724   0.03412   0.03649   0.04015   0.04313

 Mulliken charges and spin densities:
               1          2
     1  C   -0.366417   0.000000
     2  C   -0.112348  -0.000000
     3  C    0.597543   0.000000
     4  C   -0.192307   0.000000
     5  C    1.558015   0.000000
     6  C   -1.052873   0.000000
     7  O   -0.253566  -0.000000
     8  O   -0.308283   0.000000
     9  C   -0.023798   0.000000
    10  C   -0.103701   0.000000
    11  C   -0.289025  -0.000000
    12  C   -0.634509  -0.000000
    13  C   -0.773684  -0.000000
    14  C   -0.285969   0.000000
    15  C   -0.200761  -0.000000
    16  C   -0.646606   0.000000
    17  H    0.218805  -0.000000
    18  H    0.194190  -0.000000
    19  H    0.204092   0.000000
    20  H    0.203306  -0.000000
    21  H    0.116400   0.000000
    22  H    0.120654   0.000000
    23  H    0.140023   0.000000
    24  H    0.137080   0.000000
    25  H    0.141926   0.000000
    26  H    0.152333  -0.000000
    27  H    0.141656  -0.000000
    28  H    0.202021   0.000000
    29  H    0.175400   0.000000
    30  H    0.091123   0.000000
    31  H    0.146193  -0.000000
    32  H    0.131011   0.000000
    33  H    0.137638   0.000000
    34  H    0.144091  -0.000000
    35  H    0.146708  -0.000000
    36  H    0.143637   0.000000
 Sum of Mulliken charges =  -0.00000   0.00000

 Dipole moment (field-independent basis, Debye):
    X=             -2.8722    Y=             -8.1440    Z=              2.9880  Tot=              9.1379
 Quadrupole moment (field-independent basis, Debye-Ang):
   XX=            -90.1890   YY=           -148.4873   ZZ=           -101.2095
   XY=             -5.1002   XZ=             -0.1161   YZ=             13.0345

  Exact polarizability: 260.502  11.429 269.305 -15.283 -27.051 176.116
 Approx polarizability: 277.859  18.044 296.679 -21.307 -35.778 202.127

                      1                      2                      3
                      A                      A                      A
 Frequencies --     25.6542                35.2277                51.0266
 Red. masses --      3.4448                 4.6216                 4.7972
 Frc consts  --      0.0013                 0.0034                 0.0074
 IR Inten    --      0.1916                 0.5241                 5.3368

                      4                      5                      6
                      A                      A                      A
 Frequencies --     59.7702                66.3488                84.7591
 Red. masses --      2.5121                 1.6835                 2.9981
 Frc consts  --      0.0053                 0.0044                 0.0127
 IR Inten    --      0.3086                 0.0204                 1.7675

                      7                      8                      9
                      A                      A                      A
 Frequencies --     89.4434               124.8839               129.1179
 Red. masses --      2.3247                 2.3310                 2.0659
 Frc consts  --      0.0110                 0.0214                 0.0203
 IR Inten    --      0.1299                 0.2136                 0.7460

                     10                     11                     12
                      A                      A                      A
 Frequencies --    174.3626               194.2518               219.8288
 Red. masses --      4.4582                 2.7022                 3.1394
 Frc consts  --      0.0799                 0.0601                 0.0894
 IR Inten    --      4.4919                 1.1282                 3.1958

                     13                     14                     15
                      A                      A                      A
 Frequencies --    239.1652               245.7664               252.3052
 Red. masses --      1.3435                 1.2263                 2.6088
 Frc consts  --      0.0453                 0.0436                 0.0978
 IR Inten    --      1.6669                 0.3868                 0.9395

                     16                     17                     18
                      A                      A                      A
 Frequencies --    258.6214               317.3875               323.7798
 Red. masses --      3.6243                 3.7496                 3.3672
 Frc consts  --      0.1428                 0.2225                 0.2080
 IR Inten    --      0.4137                 2.9179                 3.0812

                     19                     20                     21
                      A                      A                      A
 Frequencies --    368.8435               394.7533               427.3562
 Red. masses --     11.8617                 3.0072                 3.1796
 Frc consts  --      0.9508                 0.2761                 0.3421
 IR Inten    --      5.3926                 0.1620                 1.3547

                     22                     23                     24
                      A                      A                      A
 Frequencies --    457.8817               528.7057               536.6835
 Red. masses --      6.1299                 6.0103                 4.2210
 Frc consts  --      0.7572                 0.9899                 0.7163
 IR Inten    --     20.5432                 1.5497                14.8812

                     25                     26                     27
                      A                      A                      A
 Frequencies --    589.1728               652.5042               672.1667
 Red. masses --      3.8980                 4.2004                 4.3319
 Frc consts  --      0.7972                 1.0537                 1.1531
 IR Inten    --      9.2918                15.9811                 5.7008

                     28                     29                     30
                      A                      A                      A
 Frequencies --    734.0626               736.8761               768.6511
 Red. masses --      1.1301                 1.0850                 5.0257
 Frc consts  --      0.3588                 0.3471                 1.7495
 IR Inten    --      9.4795                 6.1376                 2.6715

                     31                     32                     33
                      A                      A                      A
 Frequencies --    778.4599               802.2026               818.6548
 Red. masses --      1.4000                 1.2116                 1.9798
 Frc consts  --      0.4999                 0.4594                 0.7818
 IR Inten    --      0.1290                 4.2307                14.9465

                     34                     35                     36
                      A                      A                      A
 Frequencies --    870.4344               906.7956               907.5052
 Red. masses --      1.9071                 1.9114                 1.8217
 Frc consts  --      0.8513                 0.9260                 0.8839
 IR Inten    --     23.4326                 3.1914                 2.6573

                     37                     38                     39
                      A                      A                      A
 Frequencies --    920.8971               932.7139               954.0736
 Red. masses --      1.4500                 1.8229                 2.4610
 Frc consts  --      0.7245                 0.9344                 1.3199
 IR Inten    --      0.8688                 4.6846                23.1662

                     40                     41                     42
                      A                      A                      A
 Frequencies --    962.6610               974.4100              1002.5468
 Red. masses --      1.3545                 3.1412                 3.5469
 Frc consts  --      0.7395                 1.7572                 2.1005
 IR Inten    --      7.5744                 3.0721                14.1461

                     43                     44                     45
                      A                      A                      A
 Frequencies --   1035.6560              1051.1050              1066.9682
 Red. masses --      3.0959                 2.6041                 2.3042
 Frc consts  --      1.9565                 1.6951                 1.5455
 IR Inten    --      5.5773                 1.9677                 0.4802

                     46                     47                     48
                      A                      A                      A
 Frequencies --   1106.9157              1116.1051              1122.7416
 Red. masses --      1.9064                 1.7711                 2.2732
 Frc consts  --      1.3762                 1.2999                 1.6883
 IR Inten    --     49.9843                 4.4269                 3.6892

                     49                     50                     51
                      A                      A                      A
 Frequencies --   1129.3895              1152.4169              1212.6808
 Red. masses --      1.5051                 2.6380                 2.0051
 Frc consts  --      1.1311                 2.0642                 1.7373
 IR Inten    --      0.1569                 0.7865                10.1548

                     52                     53                     54
                      A                      A                      A
 Frequencies --   1230.7327              1242.1196              1263.9979
 Red. masses --      1.4595                 1.3608                 3.3126
 Frc consts  --      1.3025                 1.2370                 3.1182
 IR Inten    --      1.7731                 0.1185               189.8689

                     55                     56                     57
                      A                      A                      A
 Frequencies --   1280.5726              1289.5840              1302.4950
 Red. masses --      1.3266                 1.4297                 1.2552
 Frc consts  --      1.2818                 1.4008                 1.2546
 IR Inten    --      1.6175                11.3026                 0.7557

                     58                     59                     60
                      A                      A                      A
 Frequencies --   1311.5137              1329.2956              1333.9809
 Red. masses --      1.1615                 1.0791                 1.0598
 Frc consts  --      1.1771                 1.1234                 1.1111
 IR Inten    --      0.1203                 3.5506                 0.4257

                     61                     62                     63
                      A                      A                      A
 Frequencies --   1343.4291              1354.6709              1372.3074
 Red. masses --      1.4470                 1.3870                 1.7914
 Frc consts  --      1.5387                 1.4996                 1.9877
 IR Inten    --      3.5957                17.4135                28.0834

                     64                     65                     66
                      A                      A                      A
 Frequencies --   1386.2906              1391.7060              1404.5567
 Red. masses --      1.5025                 1.7823                 1.2571
 Frc consts  --      1.7012                 2.0339                 1.4612
 IR Inten    --      0.9164                41.5644                 9.7138

                     67                     68                     69
                      A                      A                      A
 Frequencies --   1405.1271              1419.5491              1455.9977
 Red. masses --      1.2379                 1.8066                 1.0922
 Frc consts  --      1.4401                 2.1449                 1.3642
 IR Inten    --      4.4158                29.1924                30.1623

                     70                     71                     72
                      A                      A                      A
 Frequencies --   1473.4040              1476.8544              1481.4109
 Red. masses --      1.0701                 1.0552                 1.0769
 Frc consts  --      1.3687                 1.3560                 1.3925
 IR Inten    --      6.3852                 2.3447                 2.7758

                     73                     74                     75
                      A                      A                      A
 Frequencies --   1488.2727              1488.5593              1491.0970
 Red. masses --      1.0398                 1.0402                 1.0729
 Frc consts  --      1.3569                 1.3580                 1.4054
 IR Inten    --     10.8543                10.6622                 0.1185

                     76                     77                     78
                      A                      A                      A
 Frequencies --   1493.7479              1505.1311              1505.2772
 Red. masses --      1.0833                 1.0950                 1.0978
 Frc consts  --      1.4241                 1.4615                 1.4656
 IR Inten    --      2.9834                15.8513                16.9621

                     79                     80                     81
                      A                      A                      A
 Frequencies --   1615.9131              1680.5131              1696.5136
 Red. masses --      7.7410                 6.0499                12.3461
 Frc consts  --     11.9092                10.0666                20.9361
 IR Inten    --    193.4904                47.9110               710.4851

                     82                     83                     84
                      A                      A                      A
 Frequencies --   1726.7248              3002.6344              3006.9127
 Red. masses --     13.0335                 1.0574                 1.0577
 Frc consts  --     22.8958                 5.6166                 5.6346
 IR Inten    --    253.9278                 0.7688                17.5546

                     85                     86                     87
                      A                      A                      A
 Frequencies --   3007.1004              3011.6970              3014.1044
 Red. masses --      1.0594                 1.0602                 1.0594
 Frc consts  --      5.6444                 5.6659                 5.6705
 IR Inten    --     23.1371                 8.3302                82.4585

                     88                     89                     90
                      A                      A                      A
 Frequencies --   3015.8543              3016.6298              3019.7702
 Red. masses --      1.0364                 1.0388                 1.0613
 Frc consts  --      5.5538                 5.5698                 5.7022
 IR Inten    --     68.9580                33.0648               113.4686

                     91                     92                     93
                      A                      A                      A
 Frequencies --   3021.3317              3029.5915              3031.3511
 Red. masses --      1.0990                 1.1001                 1.1017
 Frc consts  --      5.9110                 5.9490                 5.9648
 IR Inten    --      1.1429                 3.7407                 0.0074

                     94                     95                     96
                      A                      A                      A
 Frequencies --   3051.4808              3051.8871              3075.2839
 Red. masses --      1.1048                 1.1028                 1.1029
 Frc consts  --      6.0610                 6.0519                 6.1454
 IR Inten    --     78.1266                31.7750               115.4287

                     97                     98                     99
                      A                      A                      A
 Frequencies --   3076.4124              3080.3716              3081.0617
 Red. masses --      1.1022                 1.1008                 1.1011
 Frc consts  --      6.1464                 6.1544                 6.1584
 IR Inten    --     41.4574               127.2821                63.7971

                    100                    101                    102
                      A                      A                      A
 Frequencies --   3081.6963              3177.1118              3179.5061
 Red. masses --      1.1012                 1.0912                 1.0907
 Frc consts  --      6.1614                 6.4894                 6.4964
 IR Inten    --     67.6596                12.7708                 5.1179

 - Thermochemistry -
 -------------------
 Temperature   298.150 Kelvin.  Pressure   1.00000 Atm.
 Atom     1 has atomic number  6 and mass  12.00000

 Molecular mass:   220.14633 amu.
 Principal axes and moments of inertia in atomic units:
                           1         2         3
     Eigenvalues --  4134.531925821.803569547.02212
           X            0.99744  -0.06177  -0.03597
           Y            0.06640   0.98703   0.14615
           Z            0.02647  -0.14816   0.98861
 This molecule is an asymmetric top.
 Rotational symmetry number  1.
 Warning -- assumption of classical behavior for rotation
           may cause significant error
 Rotational temperatures (Kelvin)      0.02095     0.01488     0.00907
 Rotational constants (GHZ):           0.43650     0.31000     0.18904
 Zero-point vibrational energy     812610.3 (Joules/Mol)
                                  194.21851 (Kcal/Mol)
 Warning -- explicit consideration of  25 degrees of freedom as
           vibrations may cause significant error
 Vibrational temperatures:     36.91    50.68    73.42    86.00    95.46
          (Kelvin)            121.95   128.69   179.68   185.77   250.87
                              279.49   316.28   344.11   353.60   363.01
                              372.10   456.65   465.85   530.68   567.96
                              614.87   658.79   760.69   772.17   847.69
                              938.81   967.10  1056.15  1060.20  1105.92
                             1120.03  1154.19  1177.86  1252.36  1304.68
                             1305.70  1324.97  1341.97  1372.70  1385.05
                             1401.96  1442.44  1490.08  1512.31  1535.13
                             1592.60  1605.83  1615.37  1624.94  1658.07
                             1744.78  1770.75  1787.13  1818.61  1842.46
                             1855.42  1874.00  1886.98  1912.56  1919.30
                             1932.89  1949.07  1974.44  1994.56  2002.35
                             2020.84  2021.66  2042.41  2094.86  2119.90
                             2124.86  2131.42  2141.29  2141.70  2145.36
                             2149.17  2165.55  2165.76  2324.94  2417.88
                             2440.90  2484.37  4320.12  4326.28  4326.55
                             4333.16  4336.62  4339.14  4340.26  4344.78
                             4347.02  4358.91  4361.44  4390.40  4390.98
                             4424.65  4426.27  4431.97  4432.96  4433.87
                             4571.16  4574.60

 Zero-point correction=                           0.309507 (Hartree/Particle)
 Thermal correction to Energy=                    0.327296
 Thermal correction to Enthalpy=                  0.328240
 Thermal correction to Gibbs Free Energy=         0.261625
 Sum of electronic and zero-point Energies=           -695.860826
 Sum of electronic and thermal Energies=              -695.843037
 Sum of electronic and thermal Enthalpies=            -695.842093
 Sum of electronic and thermal Free Energies=         -695.908708

                     E (Thermal)             CV                S
                      KCal/Mol        Cal/Mol-Kelvin    Cal/Mol-Kelvin
 Total                  205.381             64.440            140.202
 Electronic               0.000              0.000              0.000
 Translational            0.889              2.981             42.070
 Rotational               0.889              2.981             33.796
 Vibrational            203.604             58.479             64.336
 Vibration     1          0.593              1.985              6.140
 Vibration     2          0.594              1.982              5.511
 Vibration     3          0.595              1.977              4.777
 Vibration     4          0.597              1.973              4.465
 Vibration     5          0.598              1.970              4.259
 Vibration     6          0.601              1.960              3.778
 Vibration     7          0.602              1.957              3.672
 Vibration     8          0.610              1.928              3.023
 Vibration     9          0.612              1.924              2.959
 Vibration    10          0.627              1.874              2.388
 Vibration    11          0.635              1.848              2.187
 Vibration    12          0.647              1.811              1.961
 Vibration    13          0.657              1.781              1.809
 Vibration    14          0.660              1.770              1.761
 Vibration    15          0.664              1.759              1.714
 Vibration    16          0.667              1.748              1.671
 Vibration    17          0.704              1.640              1.324
 Vibration    18          0.708              1.628              1.291
 Vibration    19          0.741              1.536              1.085
 Vibration    20          0.762              1.481              0.982
 Vibration    21          0.789              1.411              0.867
 Vibration    22          0.816              1.343              0.772
 Vibration    23          0.884              1.186              0.590
 Vibration    24          0.892              1.169              0.572
 Vibration    25          0.946              1.055              0.469

                           ! Non-Optimized Parameters !
 Normal termination of Gaussian 16 at Sun Feb 11 18:21:20 2024.
