 Gaussian 16, Revision A.03,
 Gaussian 16:  ES64L-G16RevA.03 25-Dec-2016

 --------------------------------------
 #P UB3LYP/6-311++G(d,p) nosym opt freq
 --------------------------------------

 -------
 Reduced
 -------
 Symbolic Z-matrix:
 Charge = -2 Multiplicity = 1

 SCF Done:  E(UB3LYP) =  -460.183491372     A.U. after   43 cycles
 SCF Done:  E(UB3LYP) =  -460.183741159     A.U. after   41 cycles
 SCF Done:  E(UB3LYP) =  -460.183767731     A.U. after   46 cycles
 SCF Done:  E(UB3LYP) =  -460.183795874     A.U. after   28 cycles
 SCF Done:  E(UB3LYP) =  -460.183797130     A.U. after   36 cycles
 SCF Done:  E(UB3LYP) =  -460.183797630     A.U. after   25 cycles
 SCF Done:  E(UB3LYP) =  -460.183797920     A.U. after   27 cycles
 SCF Done:  E(UB3LYP) =  -460.183798526     A.U. after   27 cycles
 SCF Done:  E(UB3LYP) =  -460.183799047     A.U. after   28 cycles
 SCF Done:  E(UB3LYP) =  -460.183799533     A.U. after   26 cycles
 SCF Done:  E(UB3LYP) =  -460.183799854     A.U. after   28 cycles
 SCF Done:  E(UB3LYP) =  -460.183799975     A.U. after   25 cycles
 SCF Done:  E(UB3LYP) =  -460.183800014     A.U. after   25 cycles
 Optimization completed.
    -- Stationary point found.
 Normal termination of Gaussian 16 at Sat Jan  6 06:11:45 2024.

 ----------------------------------------------------------------------
 #P Geom=AllCheck Guess=TCheck SCRF=Check GenChk UB3LYP/6-311++G(d,p) F
 req
 ----------------------------------------------------------------------

 Structure from the checkpoint file:  "039-an.chk"
 -------
 Reduced
 -------
 Charge = -2 Multiplicity = 1

                          Input orientation:
 ---------------------------------------------------------------------
 Center     Atomic      Atomic             Coordinates (Angstroms)
 Number     Number       Type             X           Y           Z
 ---------------------------------------------------------------------
      1          6           0       -2.566498   -0.661492   -0.216514
      2          6           0       -1.210661   -0.027095   -0.036620
      3          6           0       -1.095533    1.335785    0.278557
      4          6           0        0.151276    2.015863    0.465964
      5          8           0        0.246461    3.284087    0.759006
      6          6           0        1.282302    1.153158    0.296641
      7          6           0        1.192748   -0.211659   -0.018458
      8          6           0        2.438367   -1.045906   -0.178280
      9          6           0       -0.065498   -0.872737   -0.201402
     10          8           0       -0.161041   -2.146075   -0.495245
     11          1           0       -2.723517   -1.490604    0.491554
     12          1           0       -3.369194    0.075467   -0.077137
     13          1           0       -2.672092   -1.113189   -1.215405
     14          1           0       -2.002418    1.935194    0.392805
     15          1           0        2.268243    1.607188    0.425347
     16          1           0        3.341756   -0.441773   -0.017748
     17          1           0        2.493741   -1.503268   -1.178755
     18          1           0        2.451559   -1.892941    0.525692
 ---------------------------------------------------------------------

 SCF Done:  E(UB3LYP) =  -460.183800014     A.U. after    1 cycles

 Alpha  occ. eigenvalues --  -18.73471 -18.72849  -9.89358  -9.89358  -9.88883
 Alpha  occ. eigenvalues --   -9.88461  -9.85800  -9.85799  -9.84533  -9.84533
 Alpha  occ. eigenvalues --   -0.64030  -0.63333  -0.51072  -0.48016  -0.42639
 Alpha  occ. eigenvalues --   -0.37396  -0.35222  -0.26534  -0.24312  -0.17539
 Alpha  occ. eigenvalues --   -0.14659  -0.14166  -0.13362  -0.13064  -0.11918
 Alpha  occ. eigenvalues --   -0.10099  -0.08053  -0.06643  -0.05550  -0.03979
 Alpha  occ. eigenvalues --   -0.03558  -0.01715   0.06324   0.07013   0.08938
 Alpha  occ. eigenvalues --    0.09462   0.16562
 Alpha virt. eigenvalues --    0.18525   0.18676   0.21114   0.21460   0.22048
 Alpha virt. eigenvalues --    0.22990   0.23236   0.24301   0.27814   0.28538
 Alpha virt. eigenvalues --    0.29099   0.29266   0.29949   0.30979   0.31621

  Beta  occ. eigenvalues --  -18.73471 -18.72849  -9.89358  -9.89358  -9.88883
  Beta  occ. eigenvalues --   -9.88461  -9.85800  -9.85799  -9.84533  -9.84533
  Beta  occ. eigenvalues --   -0.64030  -0.63333  -0.51072  -0.48016  -0.42639
  Beta  occ. eigenvalues --   -0.37396  -0.35222  -0.26534  -0.24312  -0.17539
  Beta  occ. eigenvalues --   -0.14659  -0.14166  -0.13362  -0.13064  -0.11918
  Beta  occ. eigenvalues --   -0.10099  -0.08053  -0.06643  -0.05550  -0.03979
  Beta  occ. eigenvalues --   -0.03558  -0.01715   0.06324   0.07013   0.08938
  Beta  occ. eigenvalues --    0.09462   0.16562
  Beta virt. eigenvalues --    0.18525   0.18676   0.21114   0.21460   0.22048
  Beta virt. eigenvalues --    0.22990   0.23236   0.24301   0.27814   0.28538
  Beta virt. eigenvalues --    0.29099   0.29266   0.29949   0.30979   0.31621

 Mulliken charges and spin densities:
               1          2
     1  C   -0.459408  -0.000000
     2  C    1.819943   0.000000
     3  C   -0.364269   0.000000
     4  C   -0.937678  -0.000000
     5  O   -0.597402   0.000000
     6  C   -0.364396  -0.000000
     7  C    1.819956   0.000000
     8  C   -0.459427  -0.000000
     9  C   -2.233976  -0.000000
    10  O   -0.569487   0.000000
    11  H    0.048354   0.000000
    12  H    0.086633  -0.000000
    13  H    0.052005  -0.000000
    14  H   -0.013952  -0.000000
    15  H   -0.013956  -0.000000
    16  H    0.086668  -0.000000
    17  H    0.049918  -0.000000
    18  H    0.050473   0.000000
 Sum of Mulliken charges =  -2.00000  -0.00000

 Dipole moment (field-independent basis, Debye):
    X=             -0.3233    Y=             -4.3110    Z=             -1.0024  Tot=              4.4378
 Quadrupole moment (field-independent basis, Debye-Ang):
   XX=            -86.1224   YY=           -133.7465   ZZ=            -76.6873
   XY=             -3.5760   XZ=             -1.1212   YZ=            -13.8909

  Exact polarizability: 314.034  -7.836 223.263  19.585 202.425-613.446
 Approx polarizability: 359.961  -1.271 343.953   1.227  12.537 291.709

                      1                      2                      3
                      A                      A                      A
 Frequencies --     46.3625                67.1018               124.7256
 Red. masses --      1.0139                 1.0738                 4.0584
 Frc consts  --      0.0013                 0.0028                 0.0372
 IR Inten    --      0.0882                11.4623                36.0623

                      4                      5                      6
                      A                      A                      A
 Frequencies --    171.2923               226.3906               270.7933
 Red. masses --      4.9908                 3.2299                 2.5554
 Frc consts  --      0.0863                 0.0975                 0.1104
 IR Inten    --      9.3293                 0.0006                 2.3509

                      7                      8                      9
                      A                      A                      A
 Frequencies --    291.1026               353.1068               354.9406
 Red. masses --      3.6054                 9.5539                 6.0210
 Frc consts  --      0.1800                 0.7018                 0.4469
 IR Inten    --      1.3094                 0.0636               213.5241

                     10                     11                     12
                      A                      A                      A
 Frequencies --    461.2726               470.2763               513.2379
 Red. masses --      9.2043                 3.4590                 4.9532
 Frc consts  --      1.1539                 0.4507                 0.7687
 IR Inten    --     26.2711                 0.0200                 9.1277

                     13                     14                     15
                      A                      A                      A
 Frequencies --    575.6494               619.8370               638.7339
 Red. masses --      5.1089                 3.8066                 2.0594
 Frc consts  --      0.9975                 0.8617                 0.4950
 IR Inten    --     30.9654                 5.7561               852.2418

                     16                     17                     18
                      A                      A                      A
 Frequencies --    745.6927               792.4337               815.0297
 Red. masses --      5.0117                 4.6550                 2.0060
 Frc consts  --      1.6419                 1.7223                 0.7851
 IR Inten    --     10.8540                46.9540                37.5514

                     19                     20                     21
                      A                      A                      A
 Frequencies --    826.7269               947.1892               948.7257
 Red. masses --      1.2693                 2.5261                 2.7929
 Frc consts  --      0.5111                 1.3353                 1.4811
 IR Inten    --      0.5620                22.1577                12.7638

                     22                     23                     24
                      A                      A                      A
 Frequencies --   1009.6232              1024.2713              1033.1271
 Red. masses --      2.0412                 1.6761                 1.4493
 Frc consts  --      1.2259                 1.0360                 0.9114
 IR Inten    --    141.4779                 2.8319                 0.0797

                     25                     26                     27
                      A                      A                      A
 Frequencies --   1038.1535              1161.9244              1192.4901
 Red. masses --      1.5231                 2.2950                 3.3939
 Frc consts  --      0.9672                 1.8255                 2.8436
 IR Inten    --    312.5782               107.4527                56.4649

                     28                     29                     30
                      A                      A                      A
 Frequencies --   1223.9935              1291.9991              1341.3386
 Red. masses --      1.7287                 3.2055                 7.1280
 Frc consts  --      1.5259                 3.1526                 7.5561
 IR Inten    --     79.1253               244.7472               180.8734

                     31                     32                     33
                      A                      A                      A
 Frequencies --   1367.2348              1368.9309              1400.5053
 Red. masses --      1.5461                 1.2864                 4.5463
 Frc consts  --      1.7028                 1.4204                 5.2539
 IR Inten    --     73.2021                20.1733                49.0262

                     34                     35                     36
                      A                      A                      A
 Frequencies --   1434.7763              1462.3741              1479.3317
 Red. masses --      2.6818                 1.0465                 1.0476
 Frc consts  --      3.2528                 1.3186                 1.3507
 IR Inten    --    405.7701              1830.2724                 2.1093

                     37                     38                     39
                      A                      A                      A
 Frequencies --   1481.0337              1482.7904              1492.5062
 Red. masses --      1.4067                 1.2291                 2.8432
 Frc consts  --      1.8179                 1.5922                 3.7315
 IR Inten    --      0.2883               243.2910                18.5436

                     40                     41                     42
                      A                      A                      A
 Frequencies --   1592.6566              2936.1546              2941.1423
 Red. masses --      5.4845                 1.0352                 1.0354
 Frc consts  --      8.1966                 5.2580                 5.2770
 IR Inten    --    219.7048               690.3173               137.7657

                     43                     44                     45
                      A                      A                      A
 Frequencies --   3004.1009              3008.2611              3009.2511
 Red. masses --      1.0976                 1.0980                 1.0979
 Frc consts  --      5.8360                 5.8547                 5.8577
 IR Inten    --   5722.3333                 9.1281               118.3753

                     46                     47                     48
                      A                      A                      A
 Frequencies --   3023.7273              3055.0392              3060.5349
 Red. masses --      1.1002                 1.0871                 1.0848
 Frc consts  --      5.9269                 5.9781                 5.9868
 IR Inten    --     17.1613               164.7708               168.1315

 - Thermochemistry -
 -------------------
 Temperature   298.150 Kelvin.  Pressure   1.00000 Atm.
 Atom     1 has atomic number  6 and mass  12.00000

 Molecular mass:   136.05243 amu.
 Principal axes and moments of inertia in atomic units:
                           1         2         3
     Eigenvalues --  1008.612611392.227912378.82334
           X            0.07292   0.99703  -0.02457
           Y            0.97174  -0.07658  -0.22328
           Z            0.22450   0.00760   0.97444
 This molecule is an asymmetric top.
 Rotational symmetry number  1.
 Warning -- assumption of classical behavior for rotation
           may cause significant error
 Rotational temperatures (Kelvin)      0.08587     0.06221     0.03641
 Rotational constants (GHZ):           1.78933     1.29630     0.75867
 Zero-point vibrational energy     353962.4 (Joules/Mol)
                                   84.59905 (Kcal/Mol)
 Warning -- explicit consideration of  14 degrees of freedom as
           vibrations may cause significant error
 Vibrational temperatures:     66.71    96.54   179.45   246.45   325.73
          (Kelvin)            389.61   418.83   508.04   510.68   663.67
                              676.62   738.43   828.23   891.81   919.00
                             1072.89  1140.14  1172.65  1189.48  1362.79
                             1365.00  1452.62  1473.70  1486.44  1493.67
                             1671.75  1715.73  1761.05  1858.90  1929.89
                             1967.15  1969.59  2015.01  2064.32  2104.03
                             2128.43  2130.88  2133.40  2147.38  2291.48
                             4224.47  4231.65  4322.23  4328.22  4329.64
                             4350.47  4395.52  4403.43

 Zero-point correction=                           0.134817 (Hartree/Particle)
 Thermal correction to Energy=                    0.144568
 Thermal correction to Enthalpy=                  0.145513
 Thermal correction to Gibbs Free Energy=         0.099278
 Sum of electronic and zero-point Energies=           -460.048983
 Sum of electronic and thermal Energies=              -460.039232
 Sum of electronic and thermal Enthalpies=            -460.038287
 Sum of electronic and thermal Free Energies=         -460.084522

                     E (Thermal)             CV                S
                      KCal/Mol        Cal/Mol-Kelvin    Cal/Mol-Kelvin
 Total                   90.718             35.686             97.309
 Electronic               0.000              0.000              0.000
 Translational            0.889              2.981             40.636
 Rotational               0.889              2.981             29.592
 Vibrational             88.941             29.725             27.082
 Vibration     1          0.595              1.979              4.967
 Vibration     2          0.598              1.970              4.237
 Vibration     3          0.610              1.928              3.026
 Vibration     4          0.626              1.878              2.421
 Vibration     5          0.650              1.801              1.907
 Vibration     6          0.674              1.727              1.591
 Vibration     7          0.687              1.690              1.468
 Vibration     8          0.729              1.569              1.152
 Vibration     9          0.731              1.565              1.144
 Vibration    10          0.819              1.336              0.762
 Vibration    11          0.827              1.316              0.737
 Vibration    12          0.868              1.221              0.626
 Vibration    13          0.932              1.084              0.493
 Vibration    14          0.980              0.990              0.417

                           ! Non-Optimized Parameters !
 Normal termination of Gaussian 16 at Sat Jan  6 06:17:25 2024.
