 Gaussian 16, Revision A.03,
 Gaussian 16:  ES64L-G16RevA.03 25-Dec-2016

 ----------------------------------------------------------------
 #P UB3LYP/6-311++G(d,p) SCRF=(PCM,Solvent=n,n-DiMethylFormamide)
 ----------------------------------------------------------------

 -------
 Reduced
 -------
 Symbolic Z-matrix:
 Charge = -2 Multiplicity = 1

                         Standard orientation:
 ---------------------------------------------------------------------
 Center     Atomic      Atomic             Coordinates (Angstroms)
 Number     Number       Type             X           Y           Z
 ---------------------------------------------------------------------
      1          6           0       -1.112935    2.509877   -0.000323
      2          6           0       -0.357203    1.205275    0.000008
      3          6           0        1.046317    1.192462   -0.000006
      4          6           0        1.840174    0.000007    0.000125
      5          8           0        3.145289   -0.000003    0.000167
      6          6           0        1.046316   -1.192444   -0.000035
      7          6           0       -0.357204   -1.205278   -0.000142
      8          6           0       -1.112918   -2.509875   -0.000214
      9          6           0       -1.132430    0.000001    0.000115
     10          8           0       -2.442721   -0.000018    0.000443
     11          1           0       -1.771105    2.597560    0.878634
     12          1           0       -0.424049    3.365569   -0.009334
     13          1           0       -1.783821    2.588154   -0.870235
     14          1           0        1.588301    2.141692   -0.000231
     15          1           0        1.588311   -2.141670   -0.000223
     16          1           0       -0.423937   -3.365541   -0.000876
     17          1           0       -1.777926   -2.592511   -0.874361
     18          1           0       -1.777012   -2.593240    0.874571
 ---------------------------------------------------------------------

 SCF Done:  E(UB3LYP) =  -460.477794146     A.U. after   15 cycles

 The electronic state is 1-A.
 Alpha  occ. eigenvalues --  -19.00739 -19.00520 -10.15891 -10.15132 -10.13686
 Alpha  occ. eigenvalues --  -10.13686 -10.12179 -10.12178 -10.11029 -10.11028
 Alpha  occ. eigenvalues --   -0.91496  -0.91073  -0.77542  -0.73537  -0.68081
 Alpha  occ. eigenvalues --   -0.63236  -0.61644  -0.52496  -0.50641  -0.43585
 Alpha  occ. eigenvalues --   -0.41422  -0.39267  -0.38401  -0.37982  -0.37084
 Alpha  occ. eigenvalues --   -0.35625  -0.34373  -0.33691  -0.32616  -0.30613
 Alpha  occ. eigenvalues --   -0.30137  -0.29189  -0.21327  -0.19548  -0.18738
 Alpha  occ. eigenvalues --   -0.18301  -0.10912
 Alpha virt. eigenvalues --    0.00063   0.01341   0.01784   0.02954   0.03524
 Alpha virt. eigenvalues --    0.03575   0.03950   0.06058   0.06182   0.06441
 Alpha virt. eigenvalues --    0.06489   0.07086   0.08864   0.09172   0.10195

  Beta  occ. eigenvalues --  -19.00739 -19.00520 -10.15891 -10.15132 -10.13686
  Beta  occ. eigenvalues --  -10.13686 -10.12179 -10.12178 -10.11029 -10.11028
  Beta  occ. eigenvalues --   -0.91496  -0.91073  -0.77542  -0.73537  -0.68081
  Beta  occ. eigenvalues --   -0.63236  -0.61644  -0.52496  -0.50641  -0.43585
  Beta  occ. eigenvalues --   -0.41422  -0.39267  -0.38401  -0.37982  -0.37084
  Beta  occ. eigenvalues --   -0.35625  -0.34373  -0.33691  -0.32616  -0.30613
  Beta  occ. eigenvalues --   -0.30137  -0.29189  -0.21327  -0.19548  -0.18738
  Beta  occ. eigenvalues --   -0.18301  -0.10912
  Beta virt. eigenvalues --    0.00063   0.01341   0.01784   0.02954   0.03524
  Beta virt. eigenvalues --    0.03575   0.03950   0.06058   0.06182   0.06441
  Beta virt. eigenvalues --    0.06489   0.07086   0.08864   0.09172   0.10195

 Mulliken charges and spin densities:
               1          2
     1  C   -0.421877  -0.000000
     2  C    1.205522   0.000000
     3  C   -0.529905  -0.000000
     4  C   -0.387773   0.000000
     5  O   -0.761235   0.000000
     6  C   -0.529991  -0.000000
     7  C    1.205485   0.000000
     8  C   -0.421845  -0.000000
     9  C   -1.587411  -0.000000
    10  O   -0.732638   0.000000
    11  H    0.133069  -0.000000
    12  H    0.124340  -0.000000
    13  H    0.133158  -0.000000
    14  H    0.090271  -0.000000
    15  H    0.090265  -0.000000
    16  H    0.124339   0.000000
    17  H    0.133091  -0.000000
    18  H    0.133134  -0.000000
 Sum of Mulliken charges =  -2.00000  -0.00000

 Dipole moment (field-independent basis, Debye):
    X=             -3.9397    Y=              0.0000    Z=             -0.0026  Tot=              3.9397
 Quadrupole moment (field-independent basis, Debye-Ang):
   XX=           -136.0682   YY=            -72.0579   ZZ=            -69.6590
   XY=             -0.0000   XZ=              0.0029   YZ=             -0.0009

 Normal termination of Gaussian 16 at Sun Jan 21 07:41:34 2024.
