 Gaussian 16, Revision A.03,
 Gaussian 16:  ES64L-G16RevA.03 25-Dec-2016

 ----------------------------------------------------------------
 #P UB3LYP/6-311++G(d,p) SCRF=(PCM,Solvent=n,n-DiMethylFormamide)
 ----------------------------------------------------------------

 -------
 Reduced
 -------
 Symbolic Z-matrix:
 Charge = -2 Multiplicity = 1

                         Standard orientation:
 ---------------------------------------------------------------------
 Center     Atomic      Atomic             Coordinates (Angstroms)
 Number     Number       Type             X           Y           Z
 ---------------------------------------------------------------------
      1          6           0        2.999211   -1.395973   -0.016014
      2          6           0        1.667263   -0.693083   -0.000973
      3          6           0        0.476129   -1.486742    0.003625
      4          8           0        0.510292   -2.780165    0.010574
      5          6           0       -0.774278   -0.736278   -0.000207
      6          6           0       -2.004837   -1.423964   -0.000371
      7          6           0       -3.229503   -0.771935   -0.002589
      8          6           0       -3.257087    0.652149   -0.003050
      9          6           0       -2.075563    1.365190   -0.001353
     10          6           0       -0.802970    0.724397    0.000242
     11          6           0        0.402683    1.475000    0.002396
     12          8           0        0.524576    2.794267    0.000834
     13          6           0        1.592659    0.707036    0.003690
     14          8           0        2.731282    1.500103    0.005095
     15          1           0        3.791064   -0.737717   -0.387978
     16          1           0        2.932775   -2.297665   -0.635651
     17          1           0        3.300712   -1.742619    0.987817
     18          1           0       -1.946619   -2.509284    0.001052
     19          1           0       -4.158909   -1.339827   -0.003740
     20          1           0       -4.211910    1.178464   -0.004172
     21          1           0       -2.076757    2.451821   -0.001160
     22          1           0        2.278188    2.388405   -0.000562
 ---------------------------------------------------------------------

 SCF Done:  E(UB3LYP) =  -650.095307254     A.U. after   17 cycles

 The electronic state is 1-A.
 Alpha  occ. eigenvalues --  -19.10695 -19.02506 -19.01678 -10.17564 -10.17113
 Alpha  occ. eigenvalues --  -10.15946 -10.14798 -10.14374 -10.14343 -10.14317
 Alpha  occ. eigenvalues --  -10.13812 -10.13690 -10.13227 -10.12610  -1.01830
 Alpha  occ. eigenvalues --   -0.93058  -0.91905  -0.82048  -0.76824  -0.72073
 Alpha  occ. eigenvalues --   -0.71924  -0.66197  -0.62801  -0.57966  -0.56087
 Alpha  occ. eigenvalues --   -0.53062  -0.49885  -0.46789  -0.44358  -0.42371
 Alpha  occ. eigenvalues --   -0.41900  -0.40041  -0.39745  -0.37727  -0.36855
 Alpha  occ. eigenvalues --   -0.36692  -0.35393  -0.35131  -0.34465  -0.33449
 Alpha  occ. eigenvalues --   -0.30955  -0.30933  -0.29701  -0.29208  -0.22745
 Alpha  occ. eigenvalues --   -0.22131  -0.21383  -0.19518  -0.18909  -0.11079
 Alpha virt. eigenvalues --   -0.00291  -0.00077   0.00934   0.01576   0.01990
 Alpha virt. eigenvalues --    0.02862   0.03287   0.03939   0.05460   0.05588
 Alpha virt. eigenvalues --    0.05834   0.06015   0.07495   0.07894   0.09114

  Beta  occ. eigenvalues --  -19.10695 -19.02506 -19.01678 -10.17564 -10.17113
  Beta  occ. eigenvalues --  -10.15946 -10.14798 -10.14374 -10.14343 -10.14317
  Beta  occ. eigenvalues --  -10.13812 -10.13690 -10.13227 -10.12610  -1.01830
  Beta  occ. eigenvalues --   -0.93058  -0.91905  -0.82048  -0.76824  -0.72073
  Beta  occ. eigenvalues --   -0.71924  -0.66197  -0.62801  -0.57966  -0.56087
  Beta  occ. eigenvalues --   -0.53062  -0.49885  -0.46789  -0.44358  -0.42371
  Beta  occ. eigenvalues --   -0.41900  -0.40041  -0.39745  -0.37727  -0.36855
  Beta  occ. eigenvalues --   -0.36692  -0.35393  -0.35131  -0.34465  -0.33449
  Beta  occ. eigenvalues --   -0.30955  -0.30933  -0.29701  -0.29208  -0.22745
  Beta  occ. eigenvalues --   -0.22131  -0.21383  -0.19518  -0.18909  -0.11079
  Beta virt. eigenvalues --   -0.00291  -0.00077   0.00934   0.01576   0.01990
  Beta virt. eigenvalues --    0.02862   0.03287   0.03939   0.05460   0.05588
  Beta virt. eigenvalues --    0.05834   0.06015   0.07495   0.07894   0.09114

 Mulliken charges and spin densities:
               1          2
     1  C   -0.239147   0.000000
     2  C    1.397220  -0.000000
     3  C   -0.531336  -0.000000
     4  O   -0.672536  -0.000000
     5  C    0.060259  -0.000000
     6  C    0.082150  -0.000000
     7  C   -0.465889   0.000000
     8  C   -0.296122  -0.000000
     9  C   -0.182345   0.000000
    10  C    0.527631   0.000000
    11  C   -0.962949   0.000000
    12  O   -0.742370  -0.000000
    13  C   -0.912761  -0.000000
    14  O   -0.364953  -0.000000
    15  H    0.153785  -0.000000
    16  H    0.147656   0.000000
    17  H    0.140075   0.000000
    18  H    0.136508   0.000000
    19  H    0.152105  -0.000000
    20  H    0.154346  -0.000000
    21  H    0.138588   0.000000
    22  H    0.280083   0.000000
 Sum of Mulliken charges =  -2.00000  -0.00000

 Dipole moment (field-independent basis, Debye):
    X=             -3.5338    Y=              0.0095    Z=             -0.0580  Tot=              3.5343
 Quadrupole moment (field-independent basis, Debye-Ang):
   XX=           -111.0967   YY=           -144.5018   ZZ=            -92.8829
   XY=             -1.6970   XZ=             -0.1129   YZ=              0.1001

 Normal termination of Gaussian 16 at Sun Jan 21 09:02:39 2024.
