 Q-Chem 5.4, Q-Chem, Inc., Pleasanton, CA (2021)
 Q-Chem 5.4.0 for Intel X86 EM64T Linux

User input:
--------------------------------------------------------------
$molecule
0 1
C                 -3.1850150000      1.4045140000      0.2465200000
C                 -2.4388040000      0.7149670000     -0.9119290000
C                 -1.1012210000      0.1558050000     -0.4914350000
C                 -0.9149170000     -1.1026640000     -0.0196900000
C                 -2.0058460000     -2.1226980000      0.1476660000
C                  0.4443660000     -1.5887480000      0.3740240000
O                  0.5936000000     -2.7346690000      0.7710680000
C                  1.5994190000     -0.6547990000      0.2727990000
C                  2.8768790000     -1.0827030000      0.6423690000
C                  3.9543630000     -0.2077150000      0.5507150000
C                  3.7616770000      1.0974080000      0.0899980000
C                  2.4917010000      1.5279680000     -0.2799630000
C                  1.4060150000      0.6533000000     -0.1897640000
C                  0.0467570000      1.1134230000     -0.5905640000
O                 -0.1324270000      2.2528660000     -0.9942060000
H                 -4.1373980000      1.8107940000     -0.1039590000
H                 -2.5958110000      2.2306630000      0.6500830000
H                 -3.3935050000      0.7044720000      1.0600600000
H                 -3.0598870000     -0.0779400000     -1.3323090000
H                 -2.2674570000      1.4481670000     -1.7017530000
H                 -1.9944540000     -2.5189080000      1.1660510000
H                 -2.9928480000     -1.7170520000     -0.0613090000
H                 -1.8279140000     -2.9798420000     -0.5087810000
H                  3.0030820000     -2.0982090000      0.9968980000
H                  4.9456870000     -0.5396500000      0.8377390000
H                  4.6037600000      1.7766010000      0.0201100000
H                  2.3202010000      2.5346490000     -0.6404400000
$end

$rem
BASIS  =  6-311++G(d,p)
GUI  =  2
JOB_TYPE  =  SP
METHOD  =  B3LYP
SCF_CONVERGENCE  = 8
SOLVENT_METHOD = sm12
$end

$smx
solvent dimethylformamide
charges CM5
$end

--------------------------------------------------------------

             Standard Nuclear Orientation (Angstroms)
    I     Atom           X                Y                Z
 ----------------------------------------------------------------
    1      C      -3.1850150000     1.4045140000     0.2465200000
    2      C      -2.4388040000     0.7149670000    -0.9119290000
    3      C      -1.1012210000     0.1558050000    -0.4914350000
    4      C      -0.9149170000    -1.1026640000    -0.0196900000
    5      C      -2.0058460000    -2.1226980000     0.1476660000
    6      C       0.4443660000    -1.5887480000     0.3740240000
    7      O       0.5936000000    -2.7346690000     0.7710680000
    8      C       1.5994190000    -0.6547990000     0.2727990000
    9      C       2.8768790000    -1.0827030000     0.6423690000
   10      C       3.9543630000    -0.2077150000     0.5507150000
   11      C       3.7616770000     1.0974080000     0.0899980000
   12      C       2.4917010000     1.5279680000    -0.2799630000
   13      C       1.4060150000     0.6533000000    -0.1897640000
   14      C       0.0467570000     1.1134230000    -0.5905640000
   15      O      -0.1324270000     2.2528660000    -0.9942060000
   16      H      -4.1373980000     1.8107940000    -0.1039590000
   17      H      -2.5958110000     2.2306630000     0.6500830000
   18      H      -3.3935050000     0.7044720000     1.0600600000
   19      H      -3.0598870000    -0.0779400000    -1.3323090000
   20      H      -2.2674570000     1.4481670000    -1.7017530000
   21      H      -1.9944540000    -2.5189080000     1.1660510000
   22      H      -2.9928480000    -1.7170520000    -0.0613090000
   23      H      -1.8279140000    -2.9798420000    -0.5087810000
   24      H       3.0030820000    -2.0982090000     0.9968980000
   25      H       4.9456870000    -0.5396500000     0.8377390000
   26      H       4.6037600000     1.7766010000     0.0201100000
   27      H       2.3202010000     2.5346490000    -0.6404400000
 ----------------------------------------------------------------

   15    -653.2403976620      3.85e-09  Convergence criterion met
 Total energy in the final basis set =     -653.2569874428

                    Orbital Energies (a.u.)
 --------------------------------------------------------------

 Alpha MOs
 -- Occupied --
-19.1293 -19.1290 -10.2781 -10.2773 -10.2123 -10.2094 -10.2052 -10.2047
-10.1963 -10.1960 -10.1956 -10.1954 -10.1776 -10.1712 -10.1642  -1.0634
 -1.0616  -0.8881  -0.8511  -0.7905  -0.7758  -0.7673  -0.7174  -0.6793
 -0.6542  -0.6252  -0.6004  -0.5812  -0.5489  -0.5171  -0.4968  -0.4760
 -0.4622  -0.4553  -0.4543  -0.4494  -0.4360  -0.4312  -0.4237  -0.4077
 -0.4059  -0.3946  -0.3863  -0.3789  -0.3728  -0.3677  -0.3583  -0.3469
 -0.2892  -0.2851  -0.2766  -0.2710  -0.2691

          Ground-State Mulliken Net Atomic Charges

     Atom                 Charge (a.u.)
  ----------------------------------------
      1 C                    -0.589517
      2 C                     0.130008
      3 C                     0.778971
      4 C                     0.935115
      5 C                     0.217181
      6 C                    -1.652779
      7 O                    -0.265934
      8 C                     0.118626
      9 C                    -0.014526
     10 C                     0.259867
     11 C                     0.284696
     12 C                    -0.078002
     13 C                    -0.005677
     14 C                    -2.346357
     15 O                    -0.261491
     16 H                     0.180259
     17 H                     0.132346
     18 H                     0.146773
     19 H                     0.233934
     20 H                     0.159021
     21 H                     0.181376
     22 H                     0.247091
     23 H                     0.192465
     24 H                     0.188313
     25 H                     0.319355
     26 H                     0.319930
     27 H                     0.188955
  ----------------------------------------
  Sum of atomic charges =     0.000000

                    Cartesian Multipole Moments
 -----------------------------------------------------------------
    Charge (ESU x 10^10)
                 0.0000
    Dipole Moment (Debye)
         X       0.5828      Y       0.1567      Z       0.1699
       Tot       0.6269
    Quadrupole Moments (Debye-Ang)
        XX     -67.6055     XY       5.4123     YY     -99.6326
        XZ       1.8916     YZ       4.2498     ZZ     -90.9797

 Total job time:  491.44s(wall), 3850.87s(cpu)
        *  Thank you very much for using Q-Chem.  Have a nice day.  *
