 Gaussian 16, Revision A.03,
 Gaussian 16:  ES64L-G16RevA.03 25-Dec-2016

 ----------------------------------------------------------------
 #P UB3LYP/6-311++G(d,p) SCRF=(PCM,Solvent=n,n-DiMethylFormamide)
 ----------------------------------------------------------------

 ------------------
 Quinone PCM in DMF
 ------------------
 Symbolic Z-matrix:
 Charge =  0 Multiplicity = 1

                         Standard orientation:
 ---------------------------------------------------------------------
 Center     Atomic      Atomic             Coordinates (Angstroms)
 Number     Number       Type             X           Y           Z
 ---------------------------------------------------------------------
      1          6           0        1.337608    1.549162   -0.013040
      2          6           0        0.017023    0.907102   -0.166473
      3          6           0       -0.134510   -0.424501   -0.226952
      4          6           0        1.080998   -1.296098   -0.131675
      5          6           0        2.427165   -0.663391    0.028204
      6          6           0        2.553235    0.682728    0.079875
      7          6           0        3.879186    1.371989    0.233163
      8          6           0        3.607726   -1.590204    0.118977
      9          8           0        1.424611    2.768304    0.038025
     10          8           0        0.963807   -2.511383   -0.183265
     11          6           0       -1.461219   -1.133691   -0.371566
     12          6           0       -2.621542   -0.245604   -0.723380
     13          6           0       -3.679846    0.067729    0.035436
     14          6           0       -3.897568   -0.408773    1.449012
     15          6           0       -4.776229    0.955945   -0.499514
     16          1           0       -0.828486    1.583554   -0.222153
     17          1           0        4.559733    1.098007   -0.579224
     18          1           0        4.366530    1.079705    1.169115
     19          1           0        3.748163    2.452730    0.231912
     20          1           0        3.282595   -2.628619    0.094030
     21          1           0        4.170246   -1.418394    1.041909
     22          1           0        4.300425   -1.422317   -0.712304
     23          1           0       -1.642310   -1.699038    0.547471
     24          1           0       -1.337078   -1.903849   -1.142020
     25          1           0       -2.583367    0.174742   -1.727143
     26          1           0       -3.087397   -1.031283    1.827838
     27          1           0       -4.828012   -0.983756    1.520831
     28          1           0       -4.007584    0.446579    2.125310
     29          1           0       -4.576307    1.278270   -1.523122
     30          1           0       -4.895966    1.849136    0.124570
     31          1           0       -5.740676    0.434819   -0.487494
 ---------------------------------------------------------------------

 SCF Done:  E(UB3LYP) =  -655.630089018     A.U. after   15 cycles

 The electronic state is 1-A.
 Alpha  occ. eigenvalues --  -19.13962 -19.13674 -10.28345 -10.28085 -10.21671
 Alpha  occ. eigenvalues --  -10.21079 -10.20997 -10.19865 -10.18688 -10.18465
 Alpha  occ. eigenvalues --  -10.17338 -10.17326 -10.16766 -10.16527 -10.16382
 Alpha  occ. eigenvalues --   -1.07138  -1.06700  -0.86802  -0.83467  -0.80954
 Alpha  occ. eigenvalues --   -0.75073  -0.74798  -0.69621  -0.69187  -0.68732
 Alpha  occ. eigenvalues --   -0.64422  -0.59519  -0.57869  -0.54034  -0.51804
 Alpha  occ. eigenvalues --   -0.49536  -0.47751  -0.46968  -0.46089  -0.45131
 Alpha  occ. eigenvalues --   -0.43894  -0.43427  -0.42872  -0.42453  -0.42116
 Alpha  occ. eigenvalues --   -0.41593  -0.41181  -0.40199  -0.39248  -0.38786
 Alpha  occ. eigenvalues --   -0.38330  -0.37983  -0.37385  -0.36469  -0.33815
 Alpha  occ. eigenvalues --   -0.29981  -0.29167  -0.27603  -0.27332  -0.24710
 Alpha virt. eigenvalues --   -0.12925  -0.02082  -0.01024  -0.00316   0.00005
 Alpha virt. eigenvalues --    0.00658   0.00960   0.01464   0.01837   0.02747
 Alpha virt. eigenvalues --    0.03131   0.03498   0.03927   0.04218   0.04588

  Beta  occ. eigenvalues --  -19.13962 -19.13674 -10.28345 -10.28085 -10.21671
  Beta  occ. eigenvalues --  -10.21079 -10.20997 -10.19865 -10.18688 -10.18465
  Beta  occ. eigenvalues --  -10.17338 -10.17326 -10.16766 -10.16527 -10.16382
  Beta  occ. eigenvalues --   -1.07138  -1.06700  -0.86802  -0.83467  -0.80954
  Beta  occ. eigenvalues --   -0.75073  -0.74798  -0.69621  -0.69187  -0.68732
  Beta  occ. eigenvalues --   -0.64422  -0.59519  -0.57869  -0.54034  -0.51804
  Beta  occ. eigenvalues --   -0.49536  -0.47751  -0.46968  -0.46089  -0.45131
  Beta  occ. eigenvalues --   -0.43894  -0.43427  -0.42872  -0.42453  -0.42116
  Beta  occ. eigenvalues --   -0.41593  -0.41181  -0.40199  -0.39248  -0.38786
  Beta  occ. eigenvalues --   -0.38330  -0.37983  -0.37385  -0.36469  -0.33815
  Beta  occ. eigenvalues --   -0.29981  -0.29167  -0.27603  -0.27332  -0.24710
  Beta virt. eigenvalues --   -0.12925  -0.02082  -0.01024  -0.00316   0.00005
  Beta virt. eigenvalues --    0.00658   0.00960   0.01464   0.01837   0.02747
  Beta virt. eigenvalues --    0.03131   0.03498   0.03927   0.04218   0.04588

 Mulliken charges and spin densities:
               1          2
     1  C   -0.942218   0.000000
     2  C   -1.064563   0.000000
     3  C    1.402496   0.000000
     4  C   -1.067689  -0.000000
     5  C    0.292422   0.000000
     6  C    1.167492  -0.000000
     7  C   -0.416102  -0.000000
     8  C   -0.485283  -0.000000
     9  O   -0.283679  -0.000000
    10  O   -0.255044  -0.000000
    11  C   -0.491935  -0.000000
    12  C    0.351148   0.000000
    13  C    0.211979  -0.000000
    14  C   -0.635767  -0.000000
    15  C   -0.602664   0.000000
    16  H    0.218557  -0.000000
    17  H    0.172491  -0.000000
    18  H    0.176080  -0.000000
    19  H    0.193236  -0.000000
    20  H    0.199275  -0.000000
    21  H    0.170613  -0.000000
    22  H    0.177103   0.000000
    23  H    0.211399   0.000000
    24  H    0.215501   0.000000
    25  H    0.185995   0.000000
    26  H    0.127859  -0.000000
    27  H    0.154477  -0.000000
    28  H    0.158449  -0.000000
    29  H    0.154429  -0.000000
    30  H    0.155251   0.000000
    31  H    0.148692  -0.000000
 Sum of Mulliken charges =  -0.00000   0.00000

 Dipole moment (field-independent basis, Debye):
    X=             -0.0548    Y=             -0.7849    Z=              0.4610  Tot=              0.9120
 Quadrupole moment (field-independent basis, Debye-Ang):
   XX=            -72.3257   YY=           -111.1602   ZZ=            -88.6804
   XY=             -3.5814   XZ=             -0.8717   YZ=             -1.3522

 Normal termination of Gaussian 16 at Sun Jan 21 06:58:16 2024.
