 Q-Chem 5.4, Q-Chem, Inc., Pleasanton, CA (2021)
 Q-Chem 5.4.0 for Intel X86 EM64T Linux

User input:
--------------------------------------------------------------
$molecule
-1 2
C                 -0.4669120000      1.1266480000     -0.4058730000
C                 -1.3696530000      0.0745050000     -0.8748630000
C                 -1.1941660000     -1.2463700000     -0.6044710000
C                 -0.0741630000     -1.7250180000      0.1887950000
C                  0.8146750000     -0.7005360000      0.6683220000
C                  0.6514970000      0.6603270000      0.4321300000
O                 -0.6526890000      2.3109610000     -0.7541530000
O                  0.1004260000     -2.9525530000      0.4405940000
C                  1.6019760000      1.6201920000      1.0413620000
C                  2.9892080000      1.0954910000      1.4425720000
O                  1.3459360000      2.7952910000      1.2602690000
H                 -2.2027010000      0.4206650000     -1.4805840000
H                 -1.8856860000     -1.9974260000     -0.9777950000
H                  1.6388480000     -1.0601080000      1.2747730000
H                  3.4410040000      0.4801770000      0.6606370000
H                  2.9221280000      0.4815670000      2.3467940000
H                  3.6229350000      1.9567570000      1.6561000000
$end
$rem
MAX_SCF_CYCLES=200
BASIS  =  6-311++G(d,p)
GUI  =  2
JOB_TYPE  =  SP
METHOD  =  B3LYP
SOLVENT_METHOD = COSMO
$end
$solvent
dielectric 37.219
opticaldielectric 1.43
$end

--------------------------------------------------------------

             Standard Nuclear Orientation (Angstroms)
    I     Atom           X                Y                Z
 ----------------------------------------------------------------
    1      C       0.0584285554    -1.3872582447     0.0750825383
    2      C      -1.3864216112    -1.6194654931     0.0554454434
    3      C      -2.3101521524    -0.6234881743    -0.0026006955
    4      C      -1.9259193071     0.7774742092    -0.0521092332
    5      C      -0.5080777838     1.0208732287    -0.0471258116
    6      C       0.4636591130     0.0263976772    -0.0138450950
    7      O       0.8445285597    -2.3487400558     0.2016085996
    8      O      -2.7783902981     1.7111165684    -0.1003936620
    9      C       1.8937415174     0.4086488128    -0.0821324540
   10      C       2.2735921667     1.8350120183     0.3443587131
   11      O       2.7848260802    -0.3317466934    -0.4721545204
   12      H      -1.6843982944    -2.6631774577     0.1061295325
   13      H      -3.3755694562    -0.8391295308    -0.0089731821
   14      H      -0.2254266733     2.0665288236    -0.1023408382
   15      H       1.7941181873     2.1282930286     1.2815055749
   16      H       1.9721947115     2.5587814672    -0.4200607976
   17      H       3.3582638014     1.8745009097     0.4488159402
 ----------------------------------------------------------------

    9    -534.3319773673      9.49e-06  Convergence criterion met
 Total energy in the final basis set =     -534.3319773673
    5    -534.4234933507      4.94e-06  Convergence criterion met
 Total energy in the final basis set =     -534.4234933507

                    Orbital Energies (a.u.)
 --------------------------------------------------------------

 Alpha MOs
 -- Occupied --
-19.1101 -19.0909 -19.0903 -10.2620 -10.2389 -10.2301 -10.1817 -10.1786
-10.1743 -10.1729 -10.1622  -1.0442  -1.0165  -1.0103  -0.8353  -0.7730
 -0.7223  -0.6950  -0.6295  -0.5874  -0.5297  -0.4882  -0.4810  -0.4630
 -0.4441  -0.4388  -0.4250  -0.4170  -0.4130  -0.3915  -0.3883  -0.3837
 -0.3723  -0.3583  -0.2944  -0.2744  -0.2708  -0.2559  -0.2346  -0.1764

 Beta MOs
 -- Occupied --
-19.1093 -19.0844 -19.0834 -10.2619 -10.2381 -10.2288 -10.1805 -10.1762
-10.1740 -10.1718 -10.1623  -1.0426  -1.0066  -0.9971  -0.8291  -0.7706
 -0.7208  -0.6847  -0.6257  -0.5837  -0.5266  -0.4861  -0.4776  -0.4607
 -0.4407  -0.4359  -0.4235  -0.4110  -0.3971  -0.3884  -0.3823  -0.3706
 -0.3609  -0.3533  -0.2710  -0.2628  -0.2617  -0.2491  -0.2306

          Ground-State Mulliken Net Atomic Charges

     Atom                 Charge (a.u.)    Spin (a.u.)
  --------------------------------------------------------
      1 C                    -0.747999       0.028774
      2 C                     0.068395       0.093167
      3 C                     0.075729       0.012866
      4 C                    -0.345598       0.136476
      5 C                    -0.849527       0.148606
      6 C                     1.447715       0.084357
      7 O                    -0.471036       0.210349
      8 O                    -0.523402       0.259021
      9 C                     0.159097       0.017513
     10 C                    -0.621511       0.001344
     11 O                    -0.379483       0.029001
     12 H                     0.213917      -0.007331
     13 H                     0.219353      -0.002548
     14 H                     0.198121      -0.011554
     15 H                     0.172681      -0.000374
     16 H                     0.191824       0.000592
     17 H                     0.191725      -0.000260
  --------------------------------------------------------
  Sum of atomic charges =    -1.000000

                    Cartesian Multipole Moments
 -----------------------------------------------------------------
    Charge (ESU x 10^10)
                -4.8032
    Dipole Moment (Debye)
         X       0.2897      Y       3.1036      Z       1.0124
       Tot       3.2774
    Quadrupole Moments (Debye-Ang)
        XX     -99.0048     XY      26.7658     YY     -84.5640
        XZ       2.3903     YZ       1.1351     ZZ     -67.1361

 Total job time:  27.10s(wall), 181.82s(cpu)
        *  Thank you very much for using Q-Chem.  Have a nice day.  *
