 Q-Chem 5.4, Q-Chem, Inc., Pleasanton, CA (2021)
 Q-Chem 5.4.0 for Intel X86 EM64T Linux

User input:
--------------------------------------------------------------
$molecule
0 1
C                 -4.6763190000      0.2947090000     -0.0934400000
C                 -3.2249610000     -0.1047060000     -0.0262690000
C                 -2.8499550000     -1.4403520000     -0.0136090000
C                 -1.4997170000     -1.8189680000      0.0474150000
O                 -1.2255940000     -3.1294900000      0.0555130000
C                 -0.4924040000     -0.8247300000      0.0974190000
C                  0.9139680000     -1.1984730000      0.1605900000
O                  1.2493280000     -2.4134030000      0.1718760000
C                  1.9362830000     -0.1540120000      0.2105110000
C                  3.3094410000     -0.5002340000      0.2709590000
O                  3.7397070000     -1.7682590000      0.2859630000
C                  4.2784060000      0.5149540000      0.3178430000
C                  3.8971120000      1.8450220000      0.3053800000
C                  2.5459710000      2.2037860000      0.2461410000
C                  1.5735000000      1.2154400000      0.1990470000
C                  0.1377240000      1.6226540000      0.1359520000
O                 -0.1853140000      2.7990900000      0.1268100000
C                 -0.8865960000      0.5365930000      0.0843280000
C                 -2.2243660000      0.8843770000      0.0238710000
H                 -4.8717040000      0.8952980000     -0.9868790000
H                 -5.3326450000     -0.5762560000     -0.1178910000
H                 -4.9506850000      0.9060600000      0.7713480000
H                 -3.5911830000     -2.2302990000     -0.0505960000
H                 -0.2460650000     -3.2257490000      0.1003980000
H                  2.9454020000     -2.3500540000      0.2483380000
H                  5.3203430000      0.2225260000      0.3635250000
H                  4.6569060000      2.6175360000      0.3420510000
H                  2.2366330000      3.2406210000      0.2359010000
H                 -2.4832160000      1.9363170000      0.0159980000
$end
$rem
MAX_SCF_CYCLES=200
BASIS  =  6-311++G(d,p)
GUI  =  2
JOB_TYPE  =  SP
METHOD  =  B3LYP
SOLVENT_METHOD = COSMO
$end
$solvent
dielectric 37.219
opticaldielectric 1.43
$end

--------------------------------------------------------------

             Standard Nuclear Orientation (Angstroms)
    I     Atom           X                Y                Z
 ----------------------------------------------------------------
    1      C       4.8766120057    -1.0695467760    -0.0028653304
    2      C       3.4890198033    -0.4821226222    -0.0006129953
    3      C       3.2931443572     0.8913302178    -0.0002684844
    4      C       2.0032230252     1.4447913174     0.0003868490
    5      O       1.9041412013     2.7800289774     0.0006912403
    6      C       0.8724307499     0.5921496642     0.0007361841
    7      C      -0.4738160706     1.1481856866     0.0009547091
    8      O      -0.6462811309     2.3967465746     0.0013013030
    9      C      -1.6260793592     0.2477370211     0.0003544271
   10      C      -2.9429397920     0.7721070742    -0.0007295715
   11      O      -3.2025546577     2.0858199294    -0.0008118961
   12      C      -4.0383776517    -0.1063647012    -0.0018211012
   13      C      -3.8355495220    -1.4751167056    -0.0016614557
   14      C      -2.5421991395    -2.0090138093    -0.0004206834
   15      C      -1.4468178160    -1.1576123942     0.0005242110
   16      C      -0.0758696341    -1.7507033318     0.0016036990
   17      O       0.0893694686    -2.9594766546     0.0029751392
   18      C       1.0839399634    -0.8092863386     0.0007446707
   19      C       2.3655530442    -1.3305395825     0.0001976721
   20      H       5.0318042008    -1.6928315848    -0.8886119768
   21      H       5.6424332424    -0.2927689145     0.0058345658
   22      H       5.0281500514    -1.7096181074     0.8713371311
   23      H       4.1329323607     1.5765741901    -0.0005062463
   24      H       0.9448260805     3.0046883212     0.0011365191
   25      H      -2.3376146244     2.5577305132    -0.0000148320
   26      H      -5.0336712095     0.3209801428    -0.0027213136
   27      H      -4.6914097625    -2.1406330983    -0.0025243778
   28      H      -2.3720759879    -3.0776015516    -0.0002673940
   29      H       2.4835828134    -2.4074388439     0.0003548321
 ----------------------------------------------------------------

    9    -878.8005404823      4.72e-06  Convergence criterion met
 Total energy in the final basis set =     -878.8005404823
    5    -878.8153426691      2.40e-06  Convergence criterion met
 Total energy in the final basis set =     -878.8153426691

                    Orbital Energies (a.u.)
 --------------------------------------------------------------

 Alpha MOs
 -- Occupied --
-19.1667 -19.1662 -19.1473 -19.1325 -10.2946 -10.2858 -10.2693 -10.2691
-10.2124 -10.2118 -10.2112 -10.2110 -10.2080 -10.2014 -10.1949 -10.1935
-10.1911 -10.1911 -10.1719  -1.0996  -1.0879  -1.0682  -1.0604  -0.8955
 -0.8805  -0.8239  -0.7856  -0.7770  -0.7704  -0.7242  -0.6919  -0.6700
 -0.6461  -0.6221  -0.6174  -0.5662  -0.5574  -0.5445  -0.5333  -0.5057
 -0.4998  -0.4957  -0.4714  -0.4695  -0.4656  -0.4561  -0.4460  -0.4412
 -0.4305  -0.4240  -0.4233  -0.4145  -0.4056  -0.3943  -0.3918  -0.3825
 -0.3773  -0.3741  -0.3609  -0.3490  -0.3020  -0.2931  -0.2806  -0.2745
 -0.2566  -0.2479

          Ground-State Mulliken Net Atomic Charges

     Atom                 Charge (a.u.)
  ----------------------------------------
      1 C                    -0.335453
      2 C                     0.542118
      3 C                    -0.984609
      4 C                    -0.054382
      5 O                    -0.336994
      6 C                     0.503790
      7 C                    -0.502951
      8 O                    -0.403034
      9 C                     0.514681
     10 C                    -0.024016
     11 O                    -0.338721
     12 C                    -0.232078
     13 C                    -0.420923
     14 C                    -0.021818
     15 C                     0.108912
     16 C                    -0.542173
     17 O                    -0.289594
     18 C                     0.214062
     19 C                     0.201532
     20 H                     0.192438
     21 H                     0.186111
     22 H                     0.191002
     23 H                     0.202475
     24 H                     0.391554
     25 H                     0.392733
     26 H                     0.234405
     27 H                     0.239881
     28 H                     0.191062
     29 H                     0.179989
  ----------------------------------------
  Sum of atomic charges =     0.000000

                    Cartesian Multipole Moments
 -----------------------------------------------------------------
    Charge (ESU x 10^10)
                 0.0000
    Dipole Moment (Debye)
         X       1.0769      Y      -1.1673      Z      -0.0104
       Tot       1.5882
    Quadrupole Moments (Debye-Ang)
        XX     -83.5224     XY       3.5705     YY    -123.7681
        XZ      -0.0126     YZ       0.0239     ZZ    -111.1971

 Total job time:  68.47s(wall), 518.66s(cpu)
        *  Thank you very much for using Q-Chem.  Have a nice day.  *
