 Q-Chem 5.4, Q-Chem, Inc., Pleasanton, CA (2021)
 Q-Chem 5.4.0 for Intel X86 EM64T Linux

User input:
--------------------------------------------------------------
$molecule
0 1
C                 -3.0061280000      3.7217760000      0.1435510000
C                 -4.2691320000      3.1453650000      0.2060880000
C                 -4.4074330000      1.7548780000      0.1745790000
C                 -1.8686660000      2.9137340000      0.0493100000
C                 -2.0077510000      1.5142980000      0.0175180000
C                 -3.2826110000      0.9438330000      0.0806400000
C                 -0.5260440000      3.5598210000     -0.0164590000
C                  0.6633970000      2.6614910000     -0.1100310000
C                  0.5233050000      1.2634810000     -0.1415030000
C                 -0.8178100000      0.6178530000     -0.0824780000
C                  1.9342930000      3.2356100000     -0.1667080000
C                  3.0512560000      2.4188910000     -0.2549640000
C                  2.9298900000      1.0279630000     -0.2933600000
C                  1.6650780000      0.4607370000     -0.2337230000
O                 -0.4011030000      4.7731040000      0.0053490000
O                 -0.9401440000     -0.5960270000     -0.1146360000
H                 -3.3666500000     -0.1355460000      0.0547860000
H                  1.5400130000     -0.6145160000     -0.2600470000
H                 -2.8756110000      4.7965980000      0.1663320000
H                  2.0381480000      4.3127800000     -0.1452730000
H                  3.8106690000      0.4048800000     -0.3617680000
H                 -5.3935630000      1.3072450000      0.2236440000
O                  4.2790540000      3.0578310000     -0.3875540000
C                  5.3485260000      2.7047840000      0.4070760000
C                  6.5405030000      3.5507090000      0.0561720000
O                  5.2974340000      1.8537630000      1.2495390000
H                 -5.1478660000      3.7759460000      0.2794420000
H                  6.3174150000      4.6014720000      0.2558280000
H                  6.7643630000      3.4608040000     -1.0088540000
H                  7.3952700000      3.2343250000      0.6497330000
$end
$rem
MAX_SCF_CYCLES=200
BASIS  =  6-311++G(d,p)
GUI  =  2
JOB_TYPE  =  SP
METHOD  =  B3LYP
SOLVENT_METHOD = COSMO
$end
$solvent
dielectric 37.219
opticaldielectric 1.43
$end

--------------------------------------------------------------

             Standard Nuclear Orientation (Angstroms)
    I     Atom           X                Y                Z
 ----------------------------------------------------------------
    1      C       3.5704995091    -1.6988275592     0.1206597548
    2      C       4.8663100978    -1.2040707416     0.2068585413
    3      C       5.0917913494     0.1753152059     0.2016919367
    4      C       2.4870614354    -0.8194146090     0.0288564606
    5      C       2.7138889209     0.5688569378     0.0235752871
    6      C       4.0211521573     1.0569254107     0.1103780467
    7      C       1.1074682257    -1.3786414621    -0.0626624467
    8      C      -0.0221958608    -0.4058779013    -0.1527319034
    9      C       0.2055435224     0.9809019035    -0.1577079975
   10      C       1.5836828361     1.5398813342    -0.0729557906
   11      C      -1.3258073179    -0.8979524518    -0.2331144692
   12      C      -2.3883144832    -0.0112717625    -0.3185619317
   13      C      -2.1796257376     1.3697366572    -0.3307853629
   14      C      -0.8825522436     1.8552642304    -0.2476311134
   15      O       0.9065323373    -2.5818724282    -0.0638836654
   16      O       1.7821753356     2.7440497293    -0.0820992444
   17      H       4.1729293485     2.1291761970     0.1047261364
   18      H      -0.6900853534     2.9208281762    -0.2533925973
   19      H       3.3726600859    -2.7635579711     0.1228290215
   20      H      -1.4971702566    -1.9666779268    -0.2320507799
   21      H      -3.0187890776     2.0480118950    -0.3973534986
   22      H       6.1033819011     0.5591951981     0.2691883166
   23      O      -3.6520886680    -0.5694327036    -0.4755445231
   24      C      -4.7065583338    -0.1635983751     0.3139119998
   25      C      -5.9449982048    -0.9268029431    -0.0646608000
   26      O      -4.6121091006     0.6679246595     1.1719561866
   27      H       5.7029051710    -1.8897845797     0.2782158497
   28      H      -5.7905106389    -1.9927827743     0.1185173860
   29      H      -6.1503292609    -0.8047177717    -1.1302174422
   30      H      -6.7851463879    -0.5675877435     0.5253863092
 ----------------------------------------------------------------

    9    -916.8981440665      5.34e-06  Convergence criterion met
 Total energy in the final basis set =     -916.8981440665
    5    -916.9178632359      3.37e-06  Convergence criterion met
 Total energy in the final basis set =     -916.9178632359

                    Orbital Energies (a.u.)
 --------------------------------------------------------------

 Alpha MOs
 -- Occupied --
-19.1967 -19.1401 -19.1356 -19.1337 -10.3305 -10.2876 -10.2860 -10.2675
-10.2152 -10.2108 -10.2097 -10.2091 -10.2043 -10.2033 -10.2031 -10.1975
-10.1973 -10.1969 -10.1966 -10.1829  -1.1367  -1.0710  -1.0685  -1.0584
 -0.8988  -0.8852  -0.8193  -0.7925  -0.7803  -0.7784  -0.7549  -0.6977
 -0.6756  -0.6598  -0.6243  -0.6147  -0.5882  -0.5650  -0.5429  -0.5172
 -0.5130  -0.5056  -0.5008  -0.4898  -0.4743  -0.4654  -0.4591  -0.4582
 -0.4558  -0.4497  -0.4467  -0.4338  -0.4243  -0.4232  -0.4070  -0.4007
 -0.3917  -0.3840  -0.3812  -0.3713  -0.3674  -0.3485  -0.3105  -0.2926
 -0.2904  -0.2824  -0.2794  -0.2788  -0.2720

          Ground-State Mulliken Net Atomic Charges

     Atom                 Charge (a.u.)
  ----------------------------------------
      1 C                     0.163078
      2 C                    -0.445799
      3 C                    -0.440750
      4 C                     0.278578
      5 C                     0.115490
      6 C                     0.197685
      7 C                    -0.660829
      8 C                     0.444272
      9 C                     0.265748
     10 C                    -0.550367
     11 C                     0.069822
     12 C                    -0.548789
     13 C                     0.073108
     14 C                     0.183636
     15 O                    -0.286384
     16 O                    -0.293764
     17 H                     0.202925
     18 H                     0.212791
     19 H                     0.200855
     20 H                     0.226665
     21 H                     0.260085
     22 H                     0.227848
     23 O                    -0.042852
     24 C                     0.203104
     25 C                    -0.582271
     26 O                    -0.305810
     27 H                     0.228382
     28 H                     0.207243
     29 H                     0.207719
     30 H                     0.188582
  ----------------------------------------
  Sum of atomic charges =     0.000001

                    Cartesian Multipole Moments
 -----------------------------------------------------------------
    Charge (ESU x 10^10)
                -0.0000
    Dipole Moment (Debye)
         X      -0.0274      Y      -1.6310      Z      -1.6528
       Tot       2.3222
    Quadrupole Moments (Debye-Ang)
        XX     -71.6137     XY       1.6057     YY    -125.4727
        XZ      10.8060     YZ      -3.5189     ZZ    -119.2801

 Total job time:  68.38s(wall), 499.48s(cpu)
        *  Thank you very much for using Q-Chem.  Have a nice day.  *
