 Gaussian 16, Revision A.03,
 Gaussian 16:  ES64L-G16RevA.03 25-Dec-2016

 ----------------------------------------------------------------------
 #P UB3LYP/6-311++G(d,p) nosym opt freq SCRF=(PCM,Solvent=n,n-DiMethylF
 ormamide)
 ----------------------------------------------------------------------

 -------
 Reduced
 -------
 Symbolic Z-matrix:
 Charge = -2 Multiplicity = 1

 SCF Done:  E(UB3LYP) =  -5761.24306726     A.U. after   18 cycles
 SCF Done:  E(UB3LYP) =  -5761.24584777     A.U. after   15 cycles
 SCF Done:  E(UB3LYP) =  -5761.24696034     A.U. after   15 cycles
 SCF Done:  E(UB3LYP) =  -5761.24719873     A.U. after   14 cycles
 SCF Done:  E(UB3LYP) =  -5761.24722792     A.U. after   14 cycles
 SCF Done:  E(UB3LYP) =  -5761.24731002     A.U. after   12 cycles
 SCF Done:  E(UB3LYP) =  -5761.24732269     A.U. after   11 cycles
 SCF Done:  E(UB3LYP) =  -5761.24733201     A.U. after   11 cycles
 SCF Done:  E(UB3LYP) =  -5761.24734935     A.U. after   11 cycles
 SCF Done:  E(UB3LYP) =  -5761.24737266     A.U. after   11 cycles
 SCF Done:  E(UB3LYP) =  -5761.24733471     A.U. after   13 cycles
 SCF Done:  E(UB3LYP) =  -5761.24740097     A.U. after   12 cycles
 SCF Done:  E(UB3LYP) =  -5761.24740601     A.U. after   10 cycles
 SCF Done:  E(UB3LYP) =  -5761.24740571     A.U. after   10 cycles
 SCF Done:  E(UB3LYP) =  -5761.24740841     A.U. after   11 cycles
 SCF Done:  E(UB3LYP) =  -5761.24740629     A.U. after   11 cycles
 SCF Done:  E(UB3LYP) =  -5761.24740967     A.U. after   10 cycles
 SCF Done:  E(UB3LYP) =  -5761.24740979     A.U. after    9 cycles
 SCF Done:  E(UB3LYP) =  -5761.24740982     A.U. after    9 cycles
 Optimization completed.
    -- Stationary point found.
 Normal termination of Gaussian 16 at Sun Feb 11 03:52:07 2024.

 ----------------------------------------------------------------------
 #P Geom=AllCheck Guess=TCheck SCRF=Check GenChk UB3LYP/6-311++G(d,p) F
 req
 ----------------------------------------------------------------------

 Structure from the checkpoint file:  "235-an.chk"
 -------
 Reduced
 -------
 Charge = -2 Multiplicity = 1

                          Input orientation:
 ---------------------------------------------------------------------
 Center     Atomic      Atomic             Coordinates (Angstroms)
 Number     Number       Type             X           Y           Z
 ---------------------------------------------------------------------
      1          6           0        5.848791   -5.202890    1.183630
      2          6           0        6.751161   -5.117005    0.148280
      3          6           0        6.555318   -4.155156   -0.876956
      4          6           0        4.717200   -4.356634    1.267433
      5          6           0        4.518896   -3.378691    0.225556
      6          6           0        5.464721   -3.317784   -0.825161
      7          6           0        3.799600   -4.487539    2.377104
      8          6           0        2.696573   -3.593386    2.353503
      9          6           0        2.506640   -2.620344    1.329672
     10          6           0        3.391304   -2.473562    0.228876
     11          8           0        3.996994   -5.375791    3.319327
     12          8           0        3.227980   -1.594043   -0.728015
     13          1           0        5.986369   -5.932601    1.971564
     14          1           0        5.299983   -2.579675   -1.599906
     15         35           0        8.258790   -6.325648    0.141221
     16         35           0        7.780998   -3.976383   -2.359788
     17          6           0        1.690514   -3.693078    3.478605
     18          6           0        1.312467   -1.694459    1.400530
     19          1           0        1.909704   -4.573349    4.083511
     20          1           0        0.661181   -3.768762    3.108980
     21          1           0        1.715823   -2.816692    4.141072
     22          1           0        0.363271   -2.223789    1.237602
     23          1           0        1.400276   -0.926471    0.631578
     24          1           0        1.226254   -1.203697    2.377030
 ---------------------------------------------------------------------

 SCF Done:  E(UB3LYP) =  -5761.24740982     A.U. after    1 cycles

 Alpha  occ. eigenvalues -- -482.82430-482.82429 -62.47713 -62.47712 -56.29737
 Alpha  occ. eigenvalues --  -56.29736 -56.29368 -56.29367 -56.29354 -56.29354
 Alpha  occ. eigenvalues --  -19.01290 -19.01286 -10.21732 -10.21687 -10.16857
 Alpha  occ. eigenvalues --  -10.16855 -10.16290 -10.16269 -10.14476 -10.14433
 Alpha  occ. eigenvalues --  -10.13529 -10.13511 -10.13033 -10.12989  -8.68680
 Alpha  occ. eigenvalues --   -8.68679  -6.51780  -6.51779  -6.50552  -6.50552
 Alpha  occ. eigenvalues --   -6.50522  -6.50522  -2.62880  -2.62879  -2.62530
 Alpha  occ. eigenvalues --   -2.62529  -2.62509  -2.62509  -2.61534  -2.61533
 Alpha  occ. eigenvalues --   -2.61533  -2.61532  -0.92497  -0.92017  -0.86352
 Alpha  occ. eigenvalues --   -0.79788  -0.79530  -0.77264  -0.72392  -0.71565
 Alpha  occ. eigenvalues --   -0.69791  -0.64559  -0.62619  -0.58595  -0.55604
 Alpha  occ. eigenvalues --   -0.52204  -0.48039  -0.45470  -0.44874  -0.42352
 Alpha  occ. eigenvalues --   -0.41506  -0.40836  -0.38697  -0.38648  -0.37350
 Alpha  occ. eigenvalues --   -0.37293  -0.36021  -0.35708  -0.35154  -0.33986
 Alpha  occ. eigenvalues --   -0.33965  -0.31697  -0.31313  -0.30405  -0.30342
 Alpha  occ. eigenvalues --   -0.30243  -0.28251  -0.27505  -0.23328  -0.22067
 Alpha  occ. eigenvalues --   -0.20281  -0.19773  -0.19047  -0.11407
 Alpha virt. eigenvalues --   -0.02809  -0.01764  -0.00164   0.00145   0.00846
 Alpha virt. eigenvalues --    0.00953   0.01782   0.03184   0.03441   0.03458
 Alpha virt. eigenvalues --    0.04304   0.04757   0.05424   0.05673   0.05777

  Beta  occ. eigenvalues -- -482.82430-482.82429 -62.47713 -62.47712 -56.29737
  Beta  occ. eigenvalues --  -56.29736 -56.29368 -56.29367 -56.29354 -56.29354
  Beta  occ. eigenvalues --  -19.01290 -19.01286 -10.21732 -10.21687 -10.16857
  Beta  occ. eigenvalues --  -10.16855 -10.16290 -10.16269 -10.14476 -10.14433
  Beta  occ. eigenvalues --  -10.13529 -10.13511 -10.13033 -10.12989  -8.68680
  Beta  occ. eigenvalues --   -8.68679  -6.51780  -6.51779  -6.50552  -6.50552
  Beta  occ. eigenvalues --   -6.50522  -6.50522  -2.62880  -2.62879  -2.62530
  Beta  occ. eigenvalues --   -2.62529  -2.62509  -2.62509  -2.61534  -2.61533
  Beta  occ. eigenvalues --   -2.61533  -2.61532  -0.92497  -0.92017  -0.86352
  Beta  occ. eigenvalues --   -0.79788  -0.79530  -0.77264  -0.72392  -0.71565
  Beta  occ. eigenvalues --   -0.69791  -0.64559  -0.62619  -0.58595  -0.55604
  Beta  occ. eigenvalues --   -0.52204  -0.48039  -0.45470  -0.44874  -0.42352
  Beta  occ. eigenvalues --   -0.41506  -0.40836  -0.38697  -0.38648  -0.37350
  Beta  occ. eigenvalues --   -0.37293  -0.36021  -0.35708  -0.35154  -0.33986
  Beta  occ. eigenvalues --   -0.33965  -0.31697  -0.31313  -0.30405  -0.30342
  Beta  occ. eigenvalues --   -0.30243  -0.28251  -0.27505  -0.23328  -0.22067
  Beta  occ. eigenvalues --   -0.20281  -0.19773  -0.19047  -0.11407
  Beta virt. eigenvalues --   -0.02809  -0.01764  -0.00164   0.00145   0.00846
  Beta virt. eigenvalues --    0.00953   0.01782   0.03184   0.03441   0.03458
  Beta virt. eigenvalues --    0.04304   0.04757   0.05424   0.05673   0.05777

 Mulliken charges and spin densities:
               1          2
     1  C   -0.257678  -0.000000
     2  C    0.046625   0.000000
     3  C    0.033647   0.000000
     4  C    0.393569   0.000000
     5  C    0.432986  -0.000000
     6  C   -0.247729  -0.000000
     7  C   -1.093062  -0.000000
     8  C    0.734123   0.000000
     9  C    0.723341  -0.000000
    10  C   -1.078118   0.000000
    11  O   -0.694609   0.000000
    12  O   -0.694876  -0.000000
    13  H    0.202507   0.000000
    14  H    0.202178   0.000000
    15  Br  -0.200499  -0.000000
    16  Br  -0.200024  -0.000000
    17  C   -0.588140   0.000000
    18  C   -0.591257  -0.000000
    19  H    0.169521  -0.000000
    20  H    0.129706   0.000000
    21  H    0.139319   0.000000
    22  H    0.139703   0.000000
    23  H    0.168841  -0.000000
    24  H    0.129927   0.000000
 Sum of Mulliken charges =  -2.00000  -0.00000

 Dipole moment (field-independent basis, Debye):
    X=            -41.6297    Y=             36.1014    Z=             -8.6678  Tot=             55.7806
 Quadrupole moment (field-independent basis, Debye-Ang):
   XX=           -335.9667   YY=           -295.7148   ZZ=           -175.8198
   XY=            171.6316   XZ=            -29.6913   YZ=             56.6805

  Exact polarizability: 407.777-104.537 283.576-109.744 -37.411 331.413
 Approx polarizability: 431.168-107.763 316.643-108.172 -49.693 366.597

                      1                      2                      3
                      A                      A                      A
 Frequencies --     40.1650                63.0862               109.4442
 Red. masses --     12.8455                 4.3257                 1.0448
 Frc consts  --      0.0122                 0.0101                 0.0074
 IR Inten    --      0.0099                12.3631                 0.2126

                      4                      5                      6
                      A                      A                      A
 Frequencies --    122.8925               125.8885               132.6543
 Red. masses --     51.6525                 8.7903                 6.0881
 Frc consts  --      0.4596                 0.0821                 0.0631
 IR Inten    --      2.5046                 3.1862                10.6239

                      7                      8                      9
                      A                      A                      A
 Frequencies --    136.5461               154.8786               212.6323
 Red. masses --      4.4300                 1.1240                 5.8194
 Frc consts  --      0.0487                 0.0159                 0.1550
 IR Inten    --      8.0079                 0.8943                 0.0392

                     10                     11                     12
                      A                      A                      A
 Frequencies --    217.2841               226.5095               228.1403
 Red. masses --     16.5864                 4.7789                11.7409
 Frc consts  --      0.4614                 0.1445                 0.3600
 IR Inten    --      9.2454                 0.4749                 0.2273

                     13                     14                     15
                      A                      A                      A
 Frequencies --    331.9409               337.3272               341.4562
 Red. masses --      2.8224                 3.4342                 5.1317
 Frc consts  --      0.1832                 0.2302                 0.3525
 IR Inten    --      3.5688                 5.4723                11.5462

                     16                     17                     18
                      A                      A                      A
 Frequencies --    390.3538               401.4399               413.5266
 Red. masses --      8.1765                 7.7184                 7.7012
 Frc consts  --      0.7341                 0.7329                 0.7759
 IR Inten    --     16.3230                11.6155                 0.0246

                     19                     20                     21
                      A                      A                      A
 Frequencies --    446.8847               463.5575               479.3421
 Red. masses --      3.3067                 5.4398                10.7597
 Frc consts  --      0.3891                 0.6887                 1.4566
 IR Inten    --      3.3170                21.7884                 6.4267

                     22                     23                     24
                      A                      A                      A
 Frequencies --    540.6231               550.7972               627.0230
 Red. masses --      6.8522                 6.8538                 4.5006
 Frc consts  --      1.1800                 1.2251                 1.0425
 IR Inten    --      0.0096                65.7779                 0.1281

                     25                     26                     27
                      A                      A                      A
 Frequencies --    639.6976               673.5476               691.9578
 Red. masses --      5.2444                 6.9178                 4.8768
 Frc consts  --      1.2644                 1.8491                 1.3758
 IR Inten    --     76.7800                27.4669                79.3349

                     28                     29                     30
                      A                      A                      A
 Frequencies --    713.7918               781.5961               840.4762
 Red. masses --      6.0854                 5.1196                 4.3721
 Frc consts  --      1.8268                 1.8427                 1.8197
 IR Inten    --     17.6010                 0.2636                14.6814

                     31                     32                     33
                      A                      A                      A
 Frequencies --    895.6974               897.7143               921.3388
 Red. masses --      1.5141                 2.5326                 1.4253
 Frc consts  --      0.7157                 1.2025                 0.7128
 IR Inten    --      0.6126                 4.8637                40.6598

                     34                     35                     36
                      A                      A                      A
 Frequencies --    978.5867              1001.8166              1029.0561
 Red. masses --      4.8208                 1.7661                 1.4188
 Frc consts  --      2.7200                 1.0443                 0.8852
 IR Inten    --    252.1239                 3.1793                 1.0097

                     37                     38                     39
                      A                      A                      A
 Frequencies --   1051.5457              1073.6323              1088.6950
 Red. masses --      1.5288                 1.8185                 2.4193
 Frc consts  --      0.9960                 1.2350                 1.6895
 IR Inten    --     11.5210                35.7314               314.4662

                     40                     41                     42
                      A                      A                      A
 Frequencies --   1152.9265              1157.4618              1204.2915
 Red. masses --      8.0673                 6.8268                 1.3081
 Frc consts  --      6.3180                 5.3887                 1.1178
 IR Inten    --     89.1448               272.4852                77.4528

                     43                     44                     45
                      A                      A                      A
 Frequencies --   1208.7233              1326.0717              1338.3729
 Red. masses --      6.4389                 5.8173                 2.6730
 Frc consts  --      5.5426                 6.0270                 2.8210
 IR Inten    --    344.8254               564.6198              1282.8707

                     46                     47                     48
                      A                      A                      A
 Frequencies --   1351.7790              1369.6683              1389.0874
 Red. masses --      6.1333                 2.6752                 1.8174
 Frc consts  --      6.6032                 2.9569                 2.0661
 IR Inten    --     97.0989                49.6264                28.7056

                     49                     50                     51
                      A                      A                      A
 Frequencies --   1393.2538              1414.5988              1454.4827
 Red. masses --      1.9717                 4.0750                 4.7513
 Frc consts  --      2.2550                 4.8044                 5.9221
 IR Inten    --    598.9870                82.4946                33.3059

                     52                     53                     54
                      A                      A                      A
 Frequencies --   1457.5032              1476.0077              1485.2047
 Red. masses --      1.2874                 1.1336                 1.0869
 Frc consts  --      1.6114                 1.4551                 1.4126
 IR Inten    --     24.8345                37.5807                 3.9209

                     55                     56                     57
                      A                      A                      A
 Frequencies --   1496.3575              1517.9430              1542.3923
 Red. masses --      1.0646                 3.5388                 6.9626
 Frc consts  --      1.4045                 4.8042                 9.7592
 IR Inten    --     17.7769               277.8385                 7.4399

                     58                     59                     60
                      A                      A                      A
 Frequencies --   1568.2191              2979.5915              2980.8199
 Red. masses --      8.2070                 1.0494                 1.0504
 Frc consts  --     11.8918                 5.4892                 5.4987
 IR Inten    --      1.6195                34.2311               364.9816

                     61                     62                     63
                      A                      A                      A
 Frequencies --   3020.4165              3021.0319              3100.9572
 Red. masses --      1.0904                 1.0882                 1.0945
 Frc consts  --      5.8609                 5.8517                 6.2007
 IR Inten    --    120.8009                59.8593                24.4156

                     64                     65                     66
                      A                      A                      A
 Frequencies --   3104.5356              3183.9189              3187.5973
 Red. masses --      1.0939                 1.0898                 1.0896
 Frc consts  --      6.2119                 6.5091                 6.5229
 IR Inten    --     23.2354                 7.7546                20.1749

 - Thermochemistry -
 -------------------
 Temperature   298.150 Kelvin.  Pressure   1.00000 Atm.
 Atom     1 has atomic number  6 and mass  12.00000

 Molecular mass:   341.88910 amu.
 Principal axes and moments of inertia in atomic units:
                           1         2         3
     Eigenvalues --  3374.364519856.56118**********
           X            0.83356   0.13744   0.53506
           Y           -0.31443  -0.67833   0.66408
           Z           -0.45422   0.72179   0.52221
 This molecule is an asymmetric top.
 Rotational symmetry number  1.
 Warning -- assumption of classical behavior for rotation
           may cause significant error
 Rotational temperatures (Kelvin)      0.02567     0.00879     0.00656
 Rotational constants (GHZ):           0.53484     0.18310     0.13663
 Zero-point vibrational energy     426210.1 (Joules/Mol)
                                  101.86665 (Kcal/Mol)
 Warning -- explicit consideration of  23 degrees of freedom as
           vibrations may cause significant error
 Vibrational temperatures:     57.79    90.77   157.47   176.81   181.13
          (Kelvin)            190.86   196.46   222.84   305.93   312.62
                              325.90   328.24   477.59   485.34   491.28
                              561.63   577.58   594.97   642.97   666.96
                              689.67   777.84   792.47   902.15   920.38
                              969.08   995.57  1026.99  1124.54  1209.26
                             1288.71  1291.61  1325.60  1407.97  1441.39
                             1480.58  1512.94  1544.72  1566.39  1658.80
                             1665.33  1732.71  1739.08  1907.92  1925.62
                             1944.91  1970.65  1998.59  2004.58  2035.29
                             2092.68  2097.02  2123.65  2136.88  2152.92
                             2183.98  2219.16  2256.32  4286.97  4288.74
                             4345.71  4346.59  4461.59  4466.73  4580.95
                             4586.24

 Zero-point correction=                           0.162335 (Hartree/Particle)
 Thermal correction to Energy=                    0.177518
 Thermal correction to Enthalpy=                  0.178462
 Thermal correction to Gibbs Free Energy=         0.118438
 Sum of electronic and zero-point Energies=          -5761.085075
 Sum of electronic and thermal Energies=             -5761.069892
 Sum of electronic and thermal Enthalpies=           -5761.068948
 Sum of electronic and thermal Free Energies=        -5761.128972

                     E (Thermal)             CV                S
                      KCal/Mol        Cal/Mol-Kelvin    Cal/Mol-Kelvin
 Total                  111.394             55.727            126.332
 Electronic               0.000              0.000              0.000
 Translational            0.889              2.981             43.382
 Rotational               0.889              2.981             34.440
 Vibrational            109.617             49.765             48.509
 Vibration     1          0.594              1.981              5.251
 Vibration     2          0.597              1.972              4.358
 Vibration     3          0.606              1.942              3.279
 Vibration     4          0.610              1.930              3.054
 Vibration     5          0.611              1.927              3.008
 Vibration     6          0.613              1.921              2.907
 Vibration     7          0.614              1.917              2.852
 Vibration     8          0.620              1.897              2.611
 Vibration     9          0.644              1.822              2.021
 Vibration    10          0.646              1.815              1.982
 Vibration    11          0.650              1.801              1.906
 Vibration    12          0.651              1.798              1.894
 Vibration    13          0.714              1.612              1.251
 Vibration    14          0.718              1.601              1.225
 Vibration    15          0.721              1.593              1.205
 Vibration    16          0.758              1.491              0.999
 Vibration    17          0.767              1.467              0.957
 Vibration    18          0.777              1.441              0.914
 Vibration    19          0.806              1.368              0.805
 Vibration    20          0.821              1.331              0.756
 Vibration    21          0.836              1.296              0.712
 Vibration    22          0.896              1.160              0.564
 Vibration    23          0.906              1.138              0.543

 Optimization completed.
    -- Stationary point found.
 Normal termination of Gaussian 16 at Sun Feb 11 04:20:45 2024.
