 Q-Chem 5.4, Q-Chem, Inc., Pleasanton, CA (2021)
 Q-Chem 5.4.0 for Intel X86 EM64T Linux

User input:
--------------------------------------------------------------
$molecule
0 1
C                  4.9992020000     -2.4917050000      0.2019770000
C                  5.6902840000     -1.6503070000     -0.6615490000
C                  4.9904480000     -0.8018400000     -1.5244350000
C                  3.6009030000     -2.4938430000      0.2120170000
C                  2.8966880000     -1.6400500000     -0.6562850000
C                  3.6009660000     -0.7967190000     -1.5218110000
C                  2.8865350000     -3.4084100000      1.1504980000
C                  1.3928380000     -3.3825630000      1.1318280000
C                  0.6888360000     -2.5291820000      0.2638050000
C                  1.4063260000     -1.6134210000     -0.6751030000
C                  0.6903390000     -4.2242880000      1.9953080000
C                 -0.7090530000     -2.5310480000      0.2728540000
C                 -1.4032280000     -3.3699510000      1.1332360000
O                  3.4967110000     -4.1480040000      1.9031490000
O                  0.7912570000     -0.8746440000     -1.4259270000
H                  5.5211690000     -3.1568440000      0.8786540000
H                 -2.4850100000     -3.3722830000      1.1410640000
H                  3.0387470000     -0.1477010000     -2.1816820000
H                  1.2347580000     -4.8800820000      2.6625710000
H                 -1.2314810000     -1.8662080000     -0.4035200000
C                 -0.7036180000     -4.2220820000      2.0001770000
H                  5.5319130000     -0.1464680000     -2.1970720000
C                 -1.4029380000     -5.1450990000      2.9469710000
O                 -0.8392650000     -5.8931270000      3.7098690000
O                 -2.7448660000     -5.0498510000      2.8548400000
C                 -3.4977190000     -5.9069890000      3.7346640000
H                 -4.5426020000     -5.6947180000      3.5204160000
H                 -3.2634300000     -5.6812870000      4.7756020000
H                 -3.2670760000     -6.9536480000      3.5329830000
H                  6.7743250000     -1.6525790000     -0.6653400000
$end

$rem
BASIS  =  6-311++G(d,p)
GUI  =  2
JOB_TYPE  =  SP
METHOD  =  B3LYP
SCF_CONVERGENCE  = 8
SOLVENT_METHOD = sm12
$end

$smx
solvent dimethylformamide
charges CM5
$end

--------------------------------------------------------------

             Standard Nuclear Orientation (Angstroms)
    I     Atom           X                Y                Z
 ----------------------------------------------------------------
    1      C       4.9992020000    -2.4917050000     0.2019770000
    2      C       5.6902840000    -1.6503070000    -0.6615490000
    3      C       4.9904480000    -0.8018400000    -1.5244350000
    4      C       3.6009030000    -2.4938430000     0.2120170000
    5      C       2.8966880000    -1.6400500000    -0.6562850000
    6      C       3.6009660000    -0.7967190000    -1.5218110000
    7      C       2.8865350000    -3.4084100000     1.1504980000
    8      C       1.3928380000    -3.3825630000     1.1318280000
    9      C       0.6888360000    -2.5291820000     0.2638050000
   10      C       1.4063260000    -1.6134210000    -0.6751030000
   11      C       0.6903390000    -4.2242880000     1.9953080000
   12      C      -0.7090530000    -2.5310480000     0.2728540000
   13      C      -1.4032280000    -3.3699510000     1.1332360000
   14      O       3.4967110000    -4.1480040000     1.9031490000
   15      O       0.7912570000    -0.8746440000    -1.4259270000
   16      H       5.5211690000    -3.1568440000     0.8786540000
   17      H      -2.4850100000    -3.3722830000     1.1410640000
   18      H       3.0387470000    -0.1477010000    -2.1816820000
   19      H       1.2347580000    -4.8800820000     2.6625710000
   20      H      -1.2314810000    -1.8662080000    -0.4035200000
   21      C      -0.7036180000    -4.2220820000     2.0001770000
   22      H       5.5319130000    -0.1464680000    -2.1970720000
   23      C      -1.4029380000    -5.1450990000     2.9469710000
   24      O      -0.8392650000    -5.8931270000     3.7098690000
   25      O      -2.7448660000    -5.0498510000     2.8548400000
   26      C      -3.4977190000    -5.9069890000     3.7346640000
   27      H      -4.5426020000    -5.6947180000     3.5204160000
   28      H      -3.2634300000    -5.6812870000     4.7756020000
   29      H      -3.2670760000    -6.9536480000     3.5329830000
   30      H       6.7743250000    -1.6525790000    -0.6653400000
 ----------------------------------------------------------------

   15    -916.8966610631      6.31e-09  Convergence criterion met
 Total energy in the final basis set =     -916.9203297269

                    Orbital Energies (a.u.)
 --------------------------------------------------------------

 Alpha MOs
 -- Occupied --
-19.1794 -19.1340 -19.1325 -19.1249 -10.3177 -10.2859 -10.2851 -10.2217
-10.2186 -10.2185 -10.2163 -10.2115 -10.2110 -10.2091 -10.2080 -10.2045
-10.1995 -10.1992 -10.1987 -10.1985  -1.1215  -1.0689  -1.0669  -1.0356
 -0.9020  -0.8876  -0.8242  -0.7913  -0.7815  -0.7796  -0.7379  -0.6964
 -0.6739  -0.6538  -0.6236  -0.5980  -0.5892  -0.5647  -0.5588  -0.5248
 -0.5044  -0.5004  -0.4937  -0.4903  -0.4773  -0.4614  -0.4601  -0.4587
 -0.4557  -0.4514  -0.4437  -0.4323  -0.4227  -0.4180  -0.4091  -0.3922
 -0.3861  -0.3806  -0.3703  -0.3698  -0.3648  -0.3203  -0.3001  -0.2949
 -0.2901  -0.2871  -0.2812  -0.2794  -0.2780

          Ground-State Mulliken Net Atomic Charges

     Atom                 Charge (a.u.)
  ----------------------------------------
      1 C                     0.055029
      2 C                     0.417761
      3 C                     0.507867
      4 C                     0.000042
      5 C                     0.025305
      6 C                     0.212351
      7 C                    -1.233396
      8 C                    -0.187016
      9 C                    -0.115015
     10 C                    -1.570771
     11 C                    -0.452372
     12 C                     0.305078
     13 C                     0.209038
     14 O                    -0.271019
     15 O                    -0.238964
     16 H                     0.187875
     17 H                     0.311501
     18 H                     0.198237
     19 H                     0.155472
     20 H                     0.245905
     21 C                     0.147234
     22 H                     0.332455
     23 C                     0.277249
     24 O                    -0.349382
     25 O                    -0.081324
     26 C                    -0.048533
     27 H                     0.233090
     28 H                     0.199318
     29 H                     0.199233
     30 H                     0.327752
  ----------------------------------------
  Sum of atomic charges =     0.000000

                    Cartesian Multipole Moments
 -----------------------------------------------------------------
    Charge (ESU x 10^10)
                 0.0000
    Dipole Moment (Debye)
         X      -0.9537      Y       1.3138      Z      -1.3431
       Tot       2.1070
    Quadrupole Moments (Debye-Ang)
        XX     -81.7758     XY      22.7868     YY    -125.9034
        XZ     -21.2540     YZ       7.5062     ZZ    -119.9433

 Total job time:  711.65s(wall), 5566.85s(cpu)
        *  Thank you very much for using Q-Chem.  Have a nice day.  *
