 Gaussian 16, Revision A.03,
 Gaussian 16:  ES64L-G16RevA.03 25-Dec-2016

 --------------------------------------
 #P UB3LYP/6-311++G(d,p) nosym opt freq
 --------------------------------------

 -------
 Radical
 -------
 Symbolic Z-matrix:
 Charge = -1 Multiplicity = 2

 SCF Done:  E(UB3LYP) =  -754.418477443     A.U. after   24 cycles
 SCF Done:  E(UB3LYP) =  -754.450949019     A.U. after   18 cycles
 SCF Done:  E(UB3LYP) =  -754.457286535     A.U. after   18 cycles
 SCF Done:  E(UB3LYP) =  -754.457548445     A.U. after   15 cycles
 SCF Done:  E(UB3LYP) =  -754.457593641     A.U. after   14 cycles
 SCF Done:  E(UB3LYP) =  -754.457601086     A.U. after   14 cycles
 Optimization completed.
    -- Stationary point found.
 Normal termination of Gaussian 16 at Sat Jan  6 02:01:25 2024.

 ----------------------------------------------------------------------
 #P Geom=AllCheck Guess=TCheck SCRF=Check GenChk UB3LYP/6-311++G(d,p) F
 req
 ----------------------------------------------------------------------

 Structure from the checkpoint file:  "348-rad.chk"
 -------
 Radical
 -------
 Charge = -1 Multiplicity = 2

                          Input orientation:
 ---------------------------------------------------------------------
 Center     Atomic      Atomic             Coordinates (Angstroms)
 Number     Number       Type             X           Y           Z
 ---------------------------------------------------------------------
      1          8           0        3.894232    2.731304    1.006433
      2          6           0        3.006097    1.882903    1.039914
      3          7           0        2.922989    0.904717    2.000929
      4          6           0        1.941977   -0.128360    2.140155
      5          8           0        2.063932   -0.903203    3.085543
      6          6           0        0.917030   -0.113102    1.118997
      7          7           0       -0.079461   -1.044894    1.135149
      8          6           0       -0.996025   -0.955350    0.140949
      9          6           0       -2.065980   -1.885589    0.083350
     10          6           0       -3.022084   -1.823764   -0.920370
     11          6           0       -2.950599   -0.831390   -1.908298
     12          6           0       -1.910837    0.098515   -1.879832
     13          6           0       -0.931374    0.060267   -0.878296
     14          7           0        0.087344    0.995591   -0.876166
     15          6           0        0.958980    0.878107    0.103756
     16          7           0        1.993025    1.819276    0.114566
     17          1           0        3.646627    0.909469    2.705337
     18          1           0       -2.104710   -2.645929    0.855982
     19          1           0       -3.830156   -2.549251   -0.939481
     20          1           0       -3.699662   -0.785229   -2.692296
     21          1           0       -1.833164    0.876305   -2.632887
     22          1           0        1.991819    2.509607   -0.622397
 ---------------------------------------------------------------------

 SCF Done:  E(UB3LYP) =  -754.457601086     A.U. after    1 cycles

 Alpha  occ. eigenvalues --  -18.98368 -18.96418 -14.24541 -14.23757 -14.17756
 Alpha  occ. eigenvalues --  -14.16817 -10.19988 -10.14996 -10.13403 -10.08385
 Alpha  occ. eigenvalues --  -10.07943 -10.07511 -10.05610 -10.05533 -10.04871
 Alpha  occ. eigenvalues --  -10.04704  -0.95468  -0.91152  -0.86768  -0.82366
 Alpha  occ. eigenvalues --   -0.79687  -0.76289  -0.72163  -0.64359  -0.62493
 Alpha  occ. eigenvalues --   -0.57658  -0.55103  -0.52627  -0.48461  -0.47469
 Alpha  occ. eigenvalues --   -0.43784  -0.43394  -0.39791  -0.37588  -0.36064
 Alpha  occ. eigenvalues --   -0.35039  -0.34657  -0.32191  -0.31770  -0.30461
 Alpha  occ. eigenvalues --   -0.30285  -0.29779  -0.28135  -0.24743  -0.24563
 Alpha  occ. eigenvalues --   -0.24328  -0.21073  -0.18376  -0.18083  -0.17720
 Alpha  occ. eigenvalues --   -0.16668  -0.14007  -0.12672  -0.12178  -0.11514
 Alpha  occ. eigenvalues --   -0.01296
 Alpha virt. eigenvalues --    0.08003   0.09151   0.09521   0.09936   0.10920
 Alpha virt. eigenvalues --    0.11437   0.11800   0.12869   0.13233   0.14317
 Alpha virt. eigenvalues --    0.14627   0.15104   0.15254   0.16123   0.16631

  Beta  occ. eigenvalues --  -18.98331 -18.96175 -14.24564 -14.23747 -14.17404
  Beta  occ. eigenvalues --  -14.16032 -10.19969 -10.14885 -10.13466 -10.08299
  Beta  occ. eigenvalues --  -10.08071 -10.07364 -10.05656 -10.05354 -10.04849
  Beta  occ. eigenvalues --  -10.04486  -0.95398  -0.90784  -0.86555  -0.81964
  Beta  occ. eigenvalues --   -0.79389  -0.75386  -0.71853  -0.63978  -0.62213
  Beta  occ. eigenvalues --   -0.56968  -0.55046  -0.52479  -0.48237  -0.47220
  Beta  occ. eigenvalues --   -0.43588  -0.43238  -0.39559  -0.37485  -0.35733
  Beta  occ. eigenvalues --   -0.34867  -0.34513  -0.32104  -0.31576  -0.30322
  Beta  occ. eigenvalues --   -0.29518  -0.29303  -0.27242  -0.24566  -0.24212
  Beta  occ. eigenvalues --   -0.24009  -0.18878  -0.18019  -0.17538  -0.17147
  Beta  occ. eigenvalues --   -0.16035  -0.13669  -0.11543  -0.11470  -0.10368
  Beta virt. eigenvalues --    0.05180   0.07991   0.09488   0.09516   0.09934
  Beta virt. eigenvalues --    0.10923   0.11802   0.12420   0.13235   0.13923
  Beta virt. eigenvalues --    0.14350   0.14867   0.15259   0.15871   0.16375

 Mulliken charges and spin densities:
               1          2
     1  O   -0.395967   0.012628
     2  C    0.354593   0.012116
     3  N   -0.457528  -0.004135
     4  C    0.278584   0.054895
     5  O   -0.379091   0.091732
     6  C   -0.169454   0.095897
     7  N   -0.061580   0.380161
     8  C   -0.150060  -0.089399
     9  C   -0.107620   0.139777
    10  C   -0.310194  -0.036779
    11  C   -0.216215   0.151087
    12  C   -0.191176  -0.023302
    13  C    0.015653   0.108195
    14  N   -0.148818   0.162705
    15  C    0.184808  -0.023049
    16  N   -0.464942  -0.007674
    17  H    0.373917  -0.000652
    18  H    0.158487  -0.012252
    19  H    0.119686   0.002422
    20  H    0.122489  -0.010829
    21  H    0.128845  -0.002667
    22  H    0.315581  -0.000878
 Sum of Mulliken charges =  -1.00000   1.00000

 Dipole moment (field-independent basis, Debye):
    X=             -3.8438    Y=              0.3100    Z=             -4.5761  Tot=              5.9843
 Quadrupole moment (field-independent basis, Debye-Ang):
   XX=           -123.9623   YY=           -112.8287   ZZ=           -115.4164
   XY=            -12.6222   XZ=            -13.3965   YZ=              4.5599

  Exact polarizability: 234.464  63.595 153.480  80.095 -12.059 175.054
 Approx polarizability: 343.980  82.304 246.723 121.881 -43.467 296.078

                      1                      2                      3
                      A                      A                      A
 Frequencies --     64.7300                74.6333               122.7106
 Red. masses --      8.2240                 5.8474                10.8574
 Frc consts  --      0.0203                 0.0192                 0.0963
 IR Inten    --      0.0963                 0.0172                 1.5814

                      4                      5                      6
                      A                      A                      A
 Frequencies --    144.7642               197.4182               208.0598
 Red. masses --      7.7928                 7.2896                 7.4887
 Frc consts  --      0.0962                 0.1674                 0.1910
 IR Inten    --      0.9401                 3.4307                 0.0559

                      7                      8                      9
                      A                      A                      A
 Frequencies --    309.1187               332.3009               373.0012
 Red. masses --      6.0923                10.7636                 8.1229
 Frc consts  --      0.3430                 0.7003                 0.6659
 IR Inten    --      0.3439                 6.0951                 3.5862

                     10                     11                     12
                      A                      A                      A
 Frequencies --    374.4132               413.7246               470.5882
 Red. masses --      7.3010                 9.4725                 3.3491
 Frc consts  --      0.6030                 0.9553                 0.4370
 IR Inten    --      2.2019                20.5353                 0.5333

                     13                     14                     15
                      A                      A                      A
 Frequencies --    519.4915               532.6508               536.4446
 Red. masses --      9.1134                 1.1382                 9.6844
 Frc consts  --      1.4491                 0.1903                 1.6420
 IR Inten    --     29.1512                 0.6289                10.0947

                     16                     17                     18
                      A                      A                      A
 Frequencies --    550.9855               579.0169               608.7586
 Red. masses --      4.3153                 6.8095                 1.2437
 Frc consts  --      0.7719                 1.3451                 0.2716
 IR Inten    --      7.7827                 4.0612               157.8336

                     19                     20                     21
                      A                      A                      A
 Frequencies --    612.4131               637.4157               669.8250
 Red. masses --      7.8479                 3.7500                 9.6891
 Frc consts  --      1.7342                 0.8977                 2.5613
 IR Inten    --      0.1885                 8.3019                26.4267

                     22                     23                     24
                      A                      A                      A
 Frequencies --    691.0296               707.9887               727.9521
 Red. masses --     10.7366                 5.9773                 1.3770
 Frc consts  --      3.0207                 1.7653                 0.4299
 IR Inten    --      6.4131                 6.0390                71.4278

                     25                     26                     27
                      A                      A                      A
 Frequencies --    736.4530               744.4666               780.1211
 Red. masses --      3.8371                11.2708                 6.5821
 Frc consts  --      1.2261                 3.6804                 2.3601
 IR Inten    --     18.6175                14.8177                 3.5189

                     28                     29                     30
                      A                      A                      A
 Frequencies --    820.9620               859.7139               898.1749
 Red. masses --      1.4778                 6.3333                 1.3332
 Frc consts  --      0.5868                 2.7580                 0.6337
 IR Inten    --      0.8105                 4.7488                 8.2292

                     31                     32                     33
                      A                      A                      A
 Frequencies --    909.6914               918.7886              1033.6966
 Red. masses --      5.9764                 1.2105                 2.8536
 Frc consts  --      2.9139                 0.6021                 1.7965
 IR Inten    --      8.1441                 0.3051                46.4625

                     34                     35                     36
                      A                      A                      A
 Frequencies --   1039.4291              1089.3528              1125.8747
 Red. masses --      2.0589                 3.8511                 1.6753
 Frc consts  --      1.3106                 2.6926                 1.2512
 IR Inten    --      1.4601                30.0254                20.9727

                     37                     38                     39
                      A                      A                      A
 Frequencies --   1158.2277              1202.5972              1239.0709
 Red. masses --      1.1263                 4.1212                 4.2995
 Frc consts  --      0.8902                 3.5117                 3.8892
 IR Inten    --      0.1402               100.6912                69.3941

                     40                     41                     42
                      A                      A                      A
 Frequencies --   1261.2733              1289.9112              1318.7214
 Red. masses --      4.8533                 2.1313                 4.9079
 Frc consts  --      4.5489                 2.0894                 5.0287
 IR Inten    --     14.7215                 2.3299               108.5728

                     43                     44                     45
                      A                      A                      A
 Frequencies --   1350.4555              1364.2129              1395.2465
 Red. masses --      5.2986                 2.2185                 3.6762
 Frc consts  --      5.6934                 2.4326                 4.2165
 IR Inten    --    332.2757                60.8895                33.6786

                     46                     47                     48
                      A                      A                      A
 Frequencies --   1401.6714              1449.7800              1463.2948
 Red. masses --      2.9291                 4.7289                 3.1708
 Frc consts  --      3.3906                 5.8561                 4.0002
 IR Inten    --      8.8935                13.6235                70.7016

                     49                     50                     51
                      A                      A                      A
 Frequencies --   1486.1046              1521.1855              1566.2364
 Red. masses --      4.3259                 3.7398                 5.5466
 Frc consts  --      5.6289                 5.0988                 8.0166
 IR Inten    --    275.1578               103.7474                25.1023

                     52                     53                     54
                      A                      A                      A
 Frequencies --   1610.0351              1697.5123              1741.5969
 Red. masses --      5.8785                 8.9852                 6.7174
 Frc consts  --      8.9781                15.2547                12.0045
 IR Inten    --    139.2677               892.2938              1339.7816

                     55                     56                     57
                      A                      A                      A
 Frequencies --   3135.1339              3150.6221              3165.8037
 Red. masses --      1.0837                 1.0882                 1.0928
 Frc consts  --      6.2760                 6.3642                 6.4531
 IR Inten    --      6.8124                32.0185                53.5842

                     58                     59                     60
                      A                      A                      A
 Frequencies --   3173.8358              3623.6458              3626.6847
 Red. masses --      1.0947                 1.0767                 1.0775
 Frc consts  --      6.4971                 8.3302                 8.3503
 IR Inten    --     31.3838                51.0907                44.9776

 - Thermochemistry -
 -------------------
 Temperature   298.150 Kelvin.  Pressure   1.00000 Atm.
 Atom     1 has atomic number  8 and mass  15.99491

 Molecular mass:   214.04908 amu.
 Principal axes and moments of inertia in atomic units:
                           1         2         3
     Eigenvalues --  1328.158655192.732396520.89102
           X            0.82978  -0.03254  -0.55714
           Y            0.37919  -0.69961   0.60561
           Z            0.40949   0.71379   0.56818
 This molecule is an asymmetric top.
 Rotational symmetry number  1.
 Warning -- assumption of classical behavior for rotation
           may cause significant error
 Rotational temperatures (Kelvin)      0.06521     0.01668     0.01328
 Rotational constants (GHZ):           1.35883     0.34755     0.27676
 Zero-point vibrational energy     399606.7 (Joules/Mol)
                                   95.50829 (Kcal/Mol)
 Warning -- explicit consideration of  19 degrees of freedom as
           vibrations may cause significant error
 Vibrational temperatures:     93.13   107.38   176.55   208.28   284.04
          (Kelvin)            299.35   444.75   478.11   536.67   538.70
                              595.26   677.07   747.43   766.37   771.82
                              792.75   833.08   875.87   881.13   917.10
                              963.73   994.24  1018.64  1047.36  1059.59
                             1071.12  1122.42  1181.18  1236.94  1292.27
                             1308.84  1321.93  1487.26  1495.51  1567.34
                             1619.88  1666.43  1730.27  1782.75  1814.69
                             1855.89  1897.35  1943.00  1962.80  2007.45
                             2016.69  2085.91  2105.35  2138.17  2188.65
                             2253.46  2316.48  2442.34  2505.77  4510.76
                             4533.04  4554.89  4566.44  5213.62  5217.99

 Zero-point correction=                           0.152202 (Hartree/Particle)
 Thermal correction to Energy=                    0.163793
 Thermal correction to Enthalpy=                  0.164737
 Thermal correction to Gibbs Free Energy=         0.113556
 Sum of electronic and zero-point Energies=           -754.305399
 Sum of electronic and thermal Energies=              -754.293808
 Sum of electronic and thermal Enthalpies=            -754.292864
 Sum of electronic and thermal Free Energies=         -754.344045

                     E (Thermal)             CV                S
                      KCal/Mol        Cal/Mol-Kelvin    Cal/Mol-Kelvin
 Total                  102.782             46.643            107.720
 Electronic               0.000              0.000              1.377
 Translational            0.889              2.981             41.987
 Rotational               0.889              2.981             32.175
 Vibrational            101.004             40.681             32.181
 Vibration     1          0.597              1.971              4.308
 Vibration     2          0.599              1.966              4.027
 Vibration     3          0.610              1.930              3.057
 Vibration     4          0.616              1.908              2.740
 Vibration     5          0.637              1.843              2.157
 Vibration     6          0.641              1.828              2.061
 Vibration     7          0.698              1.656              1.367
 Vibration     8          0.714              1.611              1.249
 Vibration     9          0.744              1.528              1.067
 Vibration    10          0.746              1.525              1.062
 Vibration    11          0.777              1.440              0.914
 Vibration    12          0.828              1.315              0.736
 Vibration    13          0.874              1.207              0.611
 Vibration    14          0.888              1.178              0.581
 Vibration    15          0.891              1.169              0.573
 Vibration    16          0.906              1.138              0.542
 Vibration    17          0.936              1.077              0.487
 Vibration    18          0.968              1.013              0.435
 Vibration    19          0.972              1.006              0.429

 Optimization completed.
    -- Stationary point found.
 Normal termination of Gaussian 16 at Sat Jan  6 02:29:38 2024.
