 Q-Chem 5.4, Q-Chem, Inc., Pleasanton, CA (2021)
 Q-Chem 5.4.0 for Intel X86 EM64T Linux

User input:
--------------------------------------------------------------
$molecule
-1 2
C                 -2.4148510000      1.9082100000     -0.0230170000
C                 -1.2693790000      0.9257600000     -0.0049730000
C                 -1.5026880000     -0.4378880000      0.1365790000
C                 -2.9075580000     -0.9713080000      0.2757390000
C                 -0.4288740000     -1.4096950000      0.1583020000
O                 -0.6351190000     -2.6495640000      0.2866060000
C                  0.9368460000     -0.8812520000      0.0220760000
C                  2.0338300000     -1.7659010000      0.0343440000
C                  3.3297170000     -1.2977890000     -0.0918760000
C                  3.5660940000      0.0839430000     -0.2355160000
C                  2.5014800000      0.9675580000     -0.2497050000
C                  1.1747700000      0.5095400000     -0.1223820000
C                  0.0644350000      1.4737990000     -0.1410320000
O                  0.2820190000      2.7116750000     -0.2699160000
H                 -3.1137150000      1.7025470000     -0.8438920000
H                 -3.0001590000      1.8669010000      0.9045010000
H                 -2.0216320000      2.9179030000     -0.1433530000
H                 -2.8728310000     -2.0564120000      0.3753240000
H                 -3.5265430000     -0.7175700000     -0.5943590000
H                 -3.4157180000     -0.5534020000      1.1541990000
H                  1.8207130000     -2.8229310000      0.1462780000
H                  4.1643040000     -1.9932040000     -0.0804180000
H                  4.5828820000      0.4534750000     -0.3348210000
H                  2.6519770000      2.0356070000     -0.3586890000
$end
$rem
MAX_SCF_CYCLES=200
BASIS  =  6-311++G(d,p)
GUI  =  2
JOB_TYPE  =  SP
METHOD  =  B3LYP
SOLVENT_METHOD = COSMO
$end
$solvent
dielectric 37.219
opticaldielectric 1.43
$end

--------------------------------------------------------------

             Standard Nuclear Orientation (Angstroms)
    I     Atom           X                Y                Z
 ----------------------------------------------------------------
    1      C       2.9431101755    -1.4682631663     0.0001145042
    2      C       1.6469095331    -0.6952796121     0.0000104403
    3      C       1.6468753889     0.6954058033    -0.0000094998
    4      C       2.9430754370     1.4683401792    -0.0000787605
    5      C       0.4231855714     1.4703512665    -0.0000205547
    6      O       0.4173449274     2.7337751616    -0.0000620468
    7      C      -0.8352244080     0.7091647140     0.0000214857
    8      C      -2.0670551217     1.3937969760     0.0001304225
    9      C      -3.2667461582     0.7045039567     0.0001166080
   10      C      -3.2666958056    -0.7046411092    -0.0000743218
   11      C      -2.0669788621    -1.3938863607    -0.0001343662
   12      C      -0.8351650669    -0.7092070012    -0.0000478149
   13      C       0.4232896814    -1.4703106063     0.0000035684
   14      O       0.4176029828    -2.7337418610     0.0000039728
   15      H       3.5566782985    -1.2329043138    -0.8789101227
   16      H       3.5550929927    -1.2351270153     0.8808562912
   17      H       2.7255174296    -2.5365483549    -0.0013144298
   18      H       2.7256336897     2.5366528347     0.0009133153
   19      H       3.5553248443     1.2348184172    -0.8805412426
   20      H       3.5564017357     1.2332531267     0.8791987332
   21      H      -2.0352339067     2.4774241671     0.0002644321
   22      H      -4.2077002467     1.2475271195     0.0002453125
   23      H      -4.2076307179    -1.2477016074    -0.0001461821
   24      H      -2.0351495884    -2.4775110181    -0.0002917820
 ----------------------------------------------------------------

    9    -613.9856300148      9.29e-06  Convergence criterion met
 Total energy in the final basis set =     -613.9856300148
    5    -614.0689784489      5.10e-06  Convergence criterion met
 Total energy in the final basis set =     -614.0689784489

                    Orbital Energies (a.u.)
 --------------------------------------------------------------

 Alpha MOs
 -- Occupied --
-19.0755 -19.0755 -10.2193 -10.2192 -10.1706 -10.1705 -10.1702 -10.1700
-10.1675 -10.1675 -10.1669 -10.1664 -10.1502 -10.1502  -1.0008  -0.9983
 -0.8560  -0.8147  -0.7556  -0.7479  -0.7218  -0.6714  -0.6520  -0.5976
 -0.5847  -0.5506  -0.5119  -0.4870  -0.4644  -0.4464  -0.4344  -0.4228
 -0.4172  -0.4148  -0.3957  -0.3945  -0.3829  -0.3822  -0.3747  -0.3678
 -0.3558  -0.3475  -0.3368  -0.3335  -0.2681  -0.2556  -0.2480  -0.2390
 -0.2356  -0.1512

 Beta MOs
 -- Occupied --
-19.0695 -19.0695 -10.2174 -10.2174 -10.1701 -10.1701 -10.1697 -10.1696
-10.1675 -10.1675 -10.1656 -10.1651 -10.1503 -10.1503  -0.9902  -0.9875
 -0.8539  -0.8105  -0.7536  -0.7461  -0.7185  -0.6695  -0.6453  -0.5967
 -0.5811  -0.5477  -0.5097  -0.4846  -0.4616  -0.4453  -0.4265  -0.4222
 -0.4147  -0.4089  -0.3880  -0.3880  -0.3818  -0.3809  -0.3734  -0.3549
 -0.3465  -0.3358  -0.3351  -0.3319  -0.2491  -0.2463  -0.2424  -0.2302
 -0.2294

          Ground-State Mulliken Net Atomic Charges

     Atom                 Charge (a.u.)    Spin (a.u.)
  --------------------------------------------------------
      1 C                    -0.470464       0.000420
      2 C                     0.870461       0.113847
      3 C                     0.871210       0.113915
      4 C                    -0.470398       0.000415
      5 C                    -1.181379       0.099576
      6 O                    -0.517796       0.217744
      7 C                     0.535769       0.012385
      8 C                    -0.122696       0.026705
      9 C                    -0.499264       0.025516
     10 C                    -0.499258       0.025492
     11 C                    -0.123294       0.026731
     12 C                     0.534452       0.012319
     13 C                    -1.181083       0.099627
     14 O                    -0.517797       0.217745
     15 H                     0.160642       0.004596
     16 H                     0.160892       0.004618
     17 H                     0.184157      -0.001219
     18 H                     0.184281      -0.001218
     19 H                     0.160801       0.004617
     20 H                     0.160574       0.004601
     21 H                     0.178487      -0.001984
     22 H                     0.201569      -0.002233
     23 H                     0.201612      -0.002231
     24 H                     0.178522      -0.001985
  --------------------------------------------------------
  Sum of atomic charges =    -1.000000

                    Cartesian Multipole Moments
 -----------------------------------------------------------------
    Charge (ESU x 10^10)
                -4.8032
    Dipole Moment (Debye)
         X      -1.0543      Y       0.0013      Z      -0.0006
       Tot       1.0543
    Quadrupole Moments (Debye-Ang)
        XX     -79.6945     XY       0.0015     YY    -124.3777
        XZ       0.0015     YZ       0.0018     ZZ     -87.9935

 Total job time:  56.06s(wall), 418.90s(cpu)
        *  Thank you very much for using Q-Chem.  Have a nice day.  *
