 Q-Chem 5.4, Q-Chem, Inc., Pleasanton, CA (2021)
 Q-Chem 5.4.0 for Intel X86 EM64T Linux

User input:
--------------------------------------------------------------
$molecule
-1 1
C                  5.0502890000     -2.9056590000     -0.3705900000
C                  5.8206070000     -2.0421900000     -1.1381990000
C                  5.2836020000     -0.8283590000     -1.5817470000
C                  3.7335170000     -2.5682270000     -0.0358500000
C                  3.1945660000     -1.3490750000     -0.4815430000
C                  3.9786940000     -0.4846600000     -1.2550620000
C                  2.9261830000     -3.5086040000      0.7877590000
C                  1.5667810000     -3.1335520000      1.1191770000
C                  1.0218940000     -1.8857010000      0.6603250000
C                  1.8011550000     -0.9677840000     -0.1404110000
C                  0.7765430000     -4.0069450000      1.9001960000
C                 -0.5681360000     -3.6396530000      2.2302790000
C                 -0.3012840000     -1.5558230000      1.0018550000
C                 -1.0719980000     -2.4457430000      1.7843630000
O                  3.4394230000     -4.5828420000      1.1651520000
O                  1.3406970000      0.1225740000     -0.5475340000
O                  1.2467090000     -5.1630080000      2.3385880000
H                  5.4424570000     -3.8504410000     -0.0152890000
H                  6.8402030000     -2.3095080000     -1.3941340000
H                  5.8870360000     -0.1552820000     -2.1812200000
H                  2.1792500000     -5.2414220000      2.0147780000
O                 -0.8757460000     -0.4110050000      0.6101440000
H                 -2.0910530000     -2.1836360000      2.0432920000
H                 -0.1938050000      0.0767960000      0.0795530000
H                  3.5391830000      0.4483170000     -1.5854290000
S                 -1.6647980000     -4.7274550000      3.2482930000
O                 -1.7607860000     -5.9687830000      2.4520560000
O                 -0.9430040000     -4.8452330000      4.5325600000
O                 -2.9217590000     -3.9447070000      3.3196080000
$end
$rem
MAX_SCF_CYCLES=200
BASIS  =  6-311++G(d,p)
GUI  =  2
JOB_TYPE  =  SP
METHOD  =  B3LYP
SCF_ALGORITHM = DIIS_GDM
THRESH = 14
SOLVENT_METHOD = PCM
$end
$pcm
theory = CPCM
$end
$solvent
dielectric 37.219
opticaldielectric 1.43
$end

--------------------------------------------------------------

             Standard Nuclear Orientation (Angstroms)
    I     Atom           X                Y                Z
 ----------------------------------------------------------------
    1      C       5.0502890000    -2.9056590000    -0.3705900000
    2      C       5.8206070000    -2.0421900000    -1.1381990000
    3      C       5.2836020000    -0.8283590000    -1.5817470000
    4      C       3.7335170000    -2.5682270000    -0.0358500000
    5      C       3.1945660000    -1.3490750000    -0.4815430000
    6      C       3.9786940000    -0.4846600000    -1.2550620000
    7      C       2.9261830000    -3.5086040000     0.7877590000
    8      C       1.5667810000    -3.1335520000     1.1191770000
    9      C       1.0218940000    -1.8857010000     0.6603250000
   10      C       1.8011550000    -0.9677840000    -0.1404110000
   11      C       0.7765430000    -4.0069450000     1.9001960000
   12      C      -0.5681360000    -3.6396530000     2.2302790000
   13      C      -0.3012840000    -1.5558230000     1.0018550000
   14      C      -1.0719980000    -2.4457430000     1.7843630000
   15      O       3.4394230000    -4.5828420000     1.1651520000
   16      O       1.3406970000     0.1225740000    -0.5475340000
   17      O       1.2467090000    -5.1630080000     2.3385880000
   18      H       5.4424570000    -3.8504410000    -0.0152890000
   19      H       6.8402030000    -2.3095080000    -1.3941340000
   20      H       5.8870360000    -0.1552820000    -2.1812200000
   21      H       2.1792500000    -5.2414220000     2.0147780000
   22      O      -0.8757460000    -0.4110050000     0.6101440000
   23      H      -2.0910530000    -2.1836360000     2.0432920000
   24      H      -0.1938050000     0.0767960000     0.0795530000
   25      H       3.5391830000     0.4483170000    -1.5854290000
   26      S      -1.6647980000    -4.7274550000     3.2482930000
   27      O      -1.7607860000    -5.9687830000     2.4520560000
   28      O      -0.9430040000    -4.8452330000     4.5325600000
   29      O      -2.9217590000    -3.9447070000     3.3196080000
 ----------------------------------------------------------------

   16   -1462.9474344396      9.75e-06  Convergence criterion met
 Total energy in the final basis set =    -1462.9474344396

                    Orbital Energies (a.u.)
 --------------------------------------------------------------

 Alpha MOs
 -- Occupied --
-89.0579 -19.1664 -19.1647 -19.1373 -19.1373 -19.1014 -19.1014 -19.1007
-10.2870 -10.2867 -10.2772 -10.2702 -10.2220 -10.2118 -10.2108 -10.2092
-10.2086 -10.2049 -10.1968 -10.1964 -10.1960 -10.1958  -8.1163  -6.0789
 -6.0788  -6.0785  -1.1237  -1.0993  -1.0923  -1.0591  -1.0560  -0.9879
 -0.9863  -0.8956  -0.8792  -0.8229  -0.7803  -0.7776  -0.7672  -0.7087
 -0.6791  -0.6626  -0.6376  -0.6146  -0.5994  -0.5713  -0.5620  -0.5458
 -0.5399  -0.5098  -0.5017  -0.4898  -0.4729  -0.4712  -0.4658  -0.4622
 -0.4614  -0.4523  -0.4502  -0.4490  -0.4377  -0.4319  -0.4284  -0.4046
 -0.4031  -0.3879  -0.3826  -0.3773  -0.3668  -0.3466  -0.3446  -0.3400
 -0.3196  -0.3100  -0.3043  -0.2981  -0.2890  -0.2796  -0.2784  -0.2763
 -0.2668  -0.2350

          Ground-State Mulliken Net Atomic Charges

     Atom                 Charge (a.u.)
  ----------------------------------------
      1 C                     0.043985
      2 C                    -0.411990
      3 C                    -0.481445
      4 C                     0.220570
      5 C                     0.079254
      6 C                     0.080294
      7 C                    -0.365421
      8 C                     0.430388
      9 C                     0.833688
     10 C                    -0.317152
     11 C                    -0.514804
     12 C                    -0.172019
     13 C                    -0.434380
     14 C                    -0.152839
     15 O                    -0.349290
     16 O                    -0.355802
     17 O                    -0.299294
     18 H                     0.198335
     19 H                     0.227808
     20 H                     0.224757
     21 H                     0.389999
     22 O                    -0.334157
     23 H                     0.275725
     24 H                     0.372239
     25 H                     0.203645
     26 S                     0.664557
     27 O                    -0.364035
     28 O                    -0.365062
     29 O                    -0.327553
  ----------------------------------------
  Sum of atomic charges =    -1.000000

                    Cartesian Multipole Moments
 -----------------------------------------------------------------
    Charge (ESU x 10^10)
                -4.8032
    Dipole Moment (Debye)
         X      12.1182      Y      24.9920      Z     -18.4534
       Tot      33.3463
    Quadrupole Moments (Debye-Ang)
        XX    -133.6413     XY     -41.5917     YY    -276.9071
        XZ      18.9764     YZ      89.2133     ZZ    -200.2795

 Total job time:  192.19s(wall), 1425.27s(cpu)
        *  Thank you very much for using Q-Chem.  Have a nice day.  *
