 Q-Chem 5.4, Q-Chem, Inc., Pleasanton, CA (2021)
 Q-Chem 5.4.0 for Intel X86 EM64T Linux

User input:
--------------------------------------------------------------
$molecule
-1 2
N                 -4.7144670000      0.3826640000      0.3399510000
C                 -3.7380330000     -0.1657990000      0.6517600000
C                 -2.5440450000     -0.8227960000      1.0218560000
C                 -2.6658100000     -1.9054550000      1.9202850000
N                 -2.7538970000     -2.7983010000      2.6595550000
C                 -1.2736570000     -0.4118420000      0.5116890000
C                 -1.1504710000      0.6799800000     -0.3939260000
C                  0.0696780000      1.0745770000     -0.8840660000
C                  1.2736630000      0.4119470000     -0.5115790000
C                  1.1504980000     -0.6798260000      0.3941220000
C                 -0.0696480000     -1.0743950000      0.8843000000
C                  2.5440060000      0.8227040000     -1.0219560000
C                  3.7379370000      0.1654310000     -0.6522270000
N                  4.7143520000     -0.3832230000     -0.3406840000
C                  2.6658550000      1.9054790000     -1.9202560000
N                  2.7539920000      2.7983460000     -2.6594920000
H                 -2.0448220000      1.2100460000     -0.7014100000
H                  0.1222940000      1.9109900000     -1.5718340000
H                  2.0448500000     -1.2098630000      0.7016750000
H                 -0.1222760000     -1.9106660000      1.5722360000
$end

$rem
BASIS  =  6-311++G(d,p)
GUI  =  2
JOB_TYPE  =  SP
METHOD  =  B3LYP
SCF_CONVERGENCE  = 8
SOLVENT_METHOD = sm12
$end

$smx
solvent dimethylformamide
charges CM5
$end

--------------------------------------------------------------

             Standard Nuclear Orientation (Angstroms)
    I     Atom           X                Y                Z
 ----------------------------------------------------------------
    1      N      -4.7144670000     0.3826640000     0.3399510000
    2      C      -3.7380330000    -0.1657990000     0.6517600000
    3      C      -2.5440450000    -0.8227960000     1.0218560000
    4      C      -2.6658100000    -1.9054550000     1.9202850000
    5      N      -2.7538970000    -2.7983010000     2.6595550000
    6      C      -1.2736570000    -0.4118420000     0.5116890000
    7      C      -1.1504710000     0.6799800000    -0.3939260000
    8      C       0.0696780000     1.0745770000    -0.8840660000
    9      C       1.2736630000     0.4119470000    -0.5115790000
   10      C       1.1504980000    -0.6798260000     0.3941220000
   11      C      -0.0696480000    -1.0743950000     0.8843000000
   12      C       2.5440060000     0.8227040000    -1.0219560000
   13      C       3.7379370000     0.1654310000    -0.6522270000
   14      N       4.7143520000    -0.3832230000    -0.3406840000
   15      C       2.6658550000     1.9054790000    -1.9202560000
   16      N       2.7539920000     2.7983460000    -2.6594920000
   17      H      -2.0448220000     1.2100460000    -0.7014100000
   18      H       0.1222940000     1.9109900000    -1.5718340000
   19      H       2.0448500000    -1.2098630000     0.7016750000
   20      H      -0.1222760000    -1.9106660000     1.5722360000
 ----------------------------------------------------------------

   16    -678.8880173312      4.45e-09  Convergence criterion met
 Total energy in the final basis set =     -678.9435794728

                    Orbital Energies (a.u.)
 --------------------------------------------------------------

 Alpha MOs
 -- Occupied --
-14.3328 -14.3328 -14.3328 -14.3328 -10.2434 -10.2434 -10.2380 -10.2380
-10.2379 -10.2379 -10.2281 -10.2281 -10.2017 -10.2016 -10.2010 -10.2010
 -0.9427  -0.9414  -0.9295  -0.9295  -0.8976  -0.8532  -0.8095  -0.7791
 -0.7403  -0.6551  -0.6412  -0.6075  -0.5734  -0.5618  -0.5289  -0.4704
 -0.4668  -0.4485  -0.4432  -0.4328  -0.4152  -0.4012  -0.3996  -0.3969
 -0.3947  -0.3896  -0.3738  -0.3737  -0.3714  -0.3706  -0.3674  -0.3596
 -0.3555  -0.3241  -0.2882  -0.2562  -0.2002

 Beta MOs
 -- Occupied --
-14.3308 -14.3308 -14.3308 -14.3308 -10.2399 -10.2399 -10.2387 -10.2387
-10.2386 -10.2386 -10.2270 -10.2270 -10.2011 -10.2010 -10.2004 -10.2004
 -0.9393  -0.9381  -0.9265  -0.9264  -0.8936  -0.8470  -0.8025  -0.7774
 -0.7333  -0.6525  -0.6392  -0.6052  -0.5707  -0.5606  -0.5269  -0.4688
 -0.4651  -0.4480  -0.4321  -0.4213  -0.4134  -0.3981  -0.3970  -0.3939
 -0.3917  -0.3803  -0.3702  -0.3695  -0.3666  -0.3664  -0.3663  -0.3584
 -0.3543  -0.3091  -0.2838  -0.2309

          Ground-State Mulliken Net Atomic Charges

     Atom                 Charge (a.u.)    Spin (a.u.)
  --------------------------------------------------------
      1 N                    -0.533251       0.105314
      2 C                    -2.103213      -0.068752
      3 C                     2.883635       0.288031
      4 C                    -2.102506      -0.068773
      5 N                    -0.533422       0.105332
      6 C                     1.724508       0.131636
      7 C                    -0.146348       0.008507
      8 C                    -0.147366       0.008501
      9 C                     1.724540       0.131631
     10 C                    -0.146458       0.008510
     11 C                    -0.147484       0.008488
     12 C                     2.883695       0.288030
     13 C                    -2.103315      -0.068755
     14 N                    -0.533262       0.105323
     15 C                    -2.102488      -0.068773
     16 N                    -0.533413       0.105329
     17 H                     0.229004      -0.004894
     18 H                     0.229079      -0.004896
     19 H                     0.229012      -0.004894
     20 H                     0.229055      -0.004896
  --------------------------------------------------------
  Sum of atomic charges =    -1.000000

                    Cartesian Multipole Moments
 -----------------------------------------------------------------
    Charge (ESU x 10^10)
                -4.8032
    Dipole Moment (Debye)
         X       0.0001      Y       0.0010      Z       0.0011
       Tot       0.0015
    Quadrupole Moments (Debye-Ang)
        XX    -188.0780     XY     -17.0220     YY    -122.0107
        XZ      26.6514     YZ      23.8662     ZZ    -118.7240

 Total job time:  320.48s(wall), 2190.34s(cpu)
        *  Thank you very much for using Q-Chem.  Have a nice day.  *
