 Gaussian 16, Revision A.03,
 Gaussian 16:  ES64L-G16RevA.03 25-Dec-2016

 ----------------------------------------------------------------------
 #P UB3LYP/6-311++G(d,p) nosym opt freq SCRF=(PCM,Solvent=n,n-DiMethylF
 ormamide)
 ----------------------------------------------------------------------

 --------
 Oxidized
 --------
 Symbolic Z-matrix:
 Charge =  0 Multiplicity = 1

 SCF Done:  E(UB3LYP) =  -1313.99653075     A.U. after   17 cycles
 SCF Done:  E(UB3LYP) =  -1313.99688260     A.U. after   16 cycles
 SCF Done:  E(UB3LYP) =  -1313.99588673     A.U. after   16 cycles
 SCF Done:  E(UB3LYP) =  -1313.99714533     A.U. after   15 cycles
 SCF Done:  E(UB3LYP) =  -1313.99727551     A.U. after   15 cycles
 SCF Done:  E(UB3LYP) =  -1313.99728098     A.U. after   14 cycles
 SCF Done:  E(UB3LYP) =  -1313.99729298     A.U. after   12 cycles
 SCF Done:  E(UB3LYP) =  -1313.99729549     A.U. after   12 cycles
 SCF Done:  E(UB3LYP) =  -1313.99729778     A.U. after   12 cycles
 SCF Done:  E(UB3LYP) =  -1313.99729878     A.U. after   13 cycles
 SCF Done:  E(UB3LYP) =  -1313.99729983     A.U. after   11 cycles
 SCF Done:  E(UB3LYP) =  -1313.99730130     A.U. after   12 cycles
 SCF Done:  E(UB3LYP) =  -1313.99730185     A.U. after   11 cycles
 SCF Done:  E(UB3LYP) =  -1313.99730200     A.U. after   11 cycles
 SCF Done:  E(UB3LYP) =  -1313.99730206     A.U. after   10 cycles
 Optimization completed.
    -- Stationary point found.
 Normal termination of Gaussian 16 at Sat Feb 10 13:06:13 2024.

 ----------------------------------------------------------------------
 #P Geom=AllCheck Guess=TCheck SCRF=Check GenChk UB3LYP/6-311++G(d,p) F
 req
 ----------------------------------------------------------------------

 Structure from the checkpoint file:  "067.chk"
 --------
 Oxidized
 --------
 Charge =  0 Multiplicity = 1

                          Input orientation:
 ---------------------------------------------------------------------
 Center     Atomic      Atomic             Coordinates (Angstroms)
 Number     Number       Type             X           Y           Z
 ---------------------------------------------------------------------
      1          6           0       -0.495717   -1.099827    2.496905
      2          6           0       -0.384514   -1.937196    1.282826
      3          6           0        0.180205   -1.477934    0.161121
      4          6           0        0.721174   -0.109133    0.084230
      5          6           0        0.604693    0.780273    1.302969
      6          6           0        0.007477    0.307078    2.408594
      7          8           0       -0.962676   -1.546133    3.529509
      8          8           0        1.249734    0.317554   -0.927148
      9         16           0       -0.277468    1.387511    3.860527
     10          6           0        0.703951    0.703844    5.195648
     11          6           0        0.081876   -0.082718    6.163394
     12          6           0        2.065291    1.007592    5.246093
     13          6           0        2.821726    0.497414    6.297779
     14          6           0        0.851812   -0.577380    7.213055
     15          6           0        2.216033   -0.290716    7.277500
     16          8           0        0.294923    2.691817    3.488494
     17          8           0       -1.701926    1.307214    4.203524
     18          1           0       -0.778262   -2.943175    1.367828
     19          1           0        0.276077   -2.080980   -0.733940
     20          1           0       -0.975260   -0.298484    6.093141
     21          1           0        2.521066    1.632564    4.488617
     22          1           0        3.879726    0.722447    6.354869
     23          1           0        0.385492   -1.185279    7.978835
     24          1           0        2.809646   -0.681422    8.095682
     25          6           0        1.284501    2.138882    1.115074
     26          6           0        0.489131    3.232551    0.469378
     27          8           0        2.464107    2.207075    1.380349
     28          1           0       -0.500254    3.320488    0.918839
     29          1           0        0.356523    2.977186   -0.587618
     30          1           0        1.029504    4.175809    0.544749
 ---------------------------------------------------------------------

 SCF Done:  E(UB3LYP) =  -1313.99730206     A.U. after    3 cycles

 Alpha  occ. eigenvalues --  -89.08038 -19.16622 -19.16197 -19.14754 -19.14318
 Alpha  occ. eigenvalues --  -19.14283 -10.31433 -10.31311 -10.30457 -10.26232
 Alpha  occ. eigenvalues --  -10.25832 -10.23180 -10.22973 -10.22847 -10.20990
 Alpha  occ. eigenvalues --  -10.20821 -10.20142 -10.19913 -10.19878 -10.18465
 Alpha  occ. eigenvalues --   -8.14406  -6.10669  -6.10603  -6.10501  -1.13839
 Alpha  occ. eigenvalues --   -1.09911  -1.09409  -1.08155  -1.03305  -0.89565
 Alpha  occ. eigenvalues --   -0.89157  -0.83252  -0.79998  -0.77813  -0.77258
 Alpha  occ. eigenvalues --   -0.73962  -0.70803  -0.67028  -0.64676  -0.63673
 Alpha  occ. eigenvalues --   -0.60530  -0.58251  -0.56282  -0.55258  -0.53220
 Alpha  occ. eigenvalues --   -0.51653  -0.50333  -0.50087  -0.49611  -0.48336
 Alpha  occ. eigenvalues --   -0.47988  -0.47232  -0.46816  -0.46506  -0.46096
 Alpha  occ. eigenvalues --   -0.45146  -0.44537  -0.44282  -0.43931  -0.41139
 Alpha  occ. eigenvalues --   -0.40160  -0.39388  -0.38796  -0.37509  -0.36734
 Alpha  occ. eigenvalues --   -0.35553  -0.34163  -0.33532  -0.33162  -0.32386
 Alpha  occ. eigenvalues --   -0.31487  -0.30906  -0.28885  -0.28334  -0.28022
 Alpha virt. eigenvalues --   -0.15881  -0.07393  -0.05379  -0.04916  -0.03732
 Alpha virt. eigenvalues --   -0.02805  -0.00811   0.00102   0.00630   0.01200
 Alpha virt. eigenvalues --    0.01471   0.01952   0.02801   0.02895   0.03185

  Beta  occ. eigenvalues --  -89.08038 -19.16622 -19.16197 -19.14754 -19.14318
  Beta  occ. eigenvalues --  -19.14283 -10.31433 -10.31311 -10.30457 -10.26232
  Beta  occ. eigenvalues --  -10.25832 -10.23180 -10.22973 -10.22847 -10.20990
  Beta  occ. eigenvalues --  -10.20821 -10.20142 -10.19913 -10.19878 -10.18465
  Beta  occ. eigenvalues --   -8.14406  -6.10669  -6.10603  -6.10501  -1.13839
  Beta  occ. eigenvalues --   -1.09911  -1.09409  -1.08155  -1.03305  -0.89565
  Beta  occ. eigenvalues --   -0.89157  -0.83252  -0.79998  -0.77813  -0.77258
  Beta  occ. eigenvalues --   -0.73962  -0.70803  -0.67028  -0.64676  -0.63673
  Beta  occ. eigenvalues --   -0.60530  -0.58251  -0.56282  -0.55258  -0.53220
  Beta  occ. eigenvalues --   -0.51653  -0.50333  -0.50087  -0.49611  -0.48336
  Beta  occ. eigenvalues --   -0.47988  -0.47232  -0.46816  -0.46506  -0.46096
  Beta  occ. eigenvalues --   -0.45146  -0.44537  -0.44282  -0.43931  -0.41139
  Beta  occ. eigenvalues --   -0.40160  -0.39388  -0.38796  -0.37509  -0.36734
  Beta  occ. eigenvalues --   -0.35553  -0.34163  -0.33532  -0.33162  -0.32386
  Beta  occ. eigenvalues --   -0.31487  -0.30906  -0.28885  -0.28334  -0.28022
  Beta virt. eigenvalues --   -0.15881  -0.07393  -0.05379  -0.04916  -0.03732
  Beta virt. eigenvalues --   -0.02805  -0.00811   0.00102   0.00630   0.01200
  Beta virt. eigenvalues --    0.01471   0.01952   0.02801   0.02895   0.03185

 Mulliken charges and spin densities:
               1          2
     1  C   -0.318248  -0.000000
     2  C    0.118762  -0.000000
     3  C   -0.062580   0.000000
     4  C   -0.418178  -0.000000
     5  C    0.850574   0.000000
     6  C   -0.179279   0.000000
     7  O   -0.203207   0.000000
     8  O   -0.206805   0.000000
     9  S    0.348692  -0.000000
    10  C    0.762433   0.000000
    11  C   -0.085608  -0.000000
    12  C   -0.343524  -0.000000
    13  C   -0.503889  -0.000000
    14  C   -0.419497   0.000000
    15  C   -0.336015   0.000000
    16  O   -0.134228  -0.000000
    17  O   -0.149789   0.000000
    18  H    0.264184  -0.000000
    19  H    0.258396   0.000000
    20  H    0.268079   0.000000
    21  H    0.234028  -0.000000
    22  H    0.227183   0.000000
    23  H    0.222773  -0.000000
    24  H    0.200701   0.000000
    25  C   -0.127264  -0.000000
    26  C   -0.647714   0.000000
    27  O   -0.230695  -0.000000
    28  H    0.203542   0.000000
    29  H    0.217482   0.000000
    30  H    0.189690   0.000000
 Sum of Mulliken charges =   0.00000  -0.00000

 Dipole moment (field-independent basis, Debye):
    X=              0.8097    Y=             -5.3514    Z=              0.0380  Tot=              5.4124
 Quadrupole moment (field-independent basis, Debye-Ang):
   XX=           -130.1769   YY=           -124.7433   ZZ=           -105.8801
   XY=             -3.9098   XZ=             24.3696   YZ=            -16.6360

  Exact polarizability: 244.578  29.818 231.131 -19.537 -50.194 333.343
 Approx polarizability: 313.089  47.379 263.702 -50.157 -78.146 391.838

                      1                      2                      3
                      A                      A                      A
 Frequencies --     20.4923                29.9232                41.0688
 Red. masses --      6.4684                 4.3348                 6.0399
 Frc consts  --      0.0016                 0.0023                 0.0060
 IR Inten    --      4.6465                 0.9802                 2.7733

                      4                      5                      6
                      A                      A                      A
 Frequencies --     66.7464                80.7596               106.4638
 Red. masses --      6.4536                 7.1083                 1.9766
 Frc consts  --      0.0169                 0.0273                 0.0132
 IR Inten    --      7.3187                 6.4866                 5.8826

                      7                      8                      9
                      A                      A                      A
 Frequencies --    111.1981               150.0544               151.9773
 Red. masses --      1.7045                 6.3865                 5.4349
 Frc consts  --      0.0124                 0.0847                 0.0740
 IR Inten    --      4.5636                 2.7640                15.2233

                     10                     11                     12
                      A                      A                      A
 Frequencies --    172.4178               177.9991               207.0061
 Red. masses --      7.8846                 5.8519                 6.2900
 Frc consts  --      0.1381                 0.1092                 0.1588
 IR Inten    --      0.8025                 2.2512                 4.5732

                     13                     14                     15
                      A                      A                      A
 Frequencies --    235.1589               253.8890               270.7097
 Red. masses --      8.5471                 8.5031                 5.3643
 Frc consts  --      0.2785                 0.3229                 0.2316
 IR Inten    --      3.7470                 1.6873                 0.7610

                     16                     17                     18
                      A                      A                      A
 Frequencies --    298.0804               307.1024               351.9207
 Red. masses --      7.7215                 8.4157                 6.6074
 Frc consts  --      0.4042                 0.4676                 0.4821
 IR Inten    --      2.8164                 6.8496                 4.0587

                     19                     20                     21
                      A                      A                      A
 Frequencies --    406.7868               408.7811               436.5914
 Red. masses --      7.7898                 2.8554                 8.5276
 Frc consts  --      0.7595                 0.2811                 0.9577
 IR Inten    --     19.0706                 0.0971                32.9480

                     22                     23                     24
                      A                      A                      A
 Frequencies --    450.5017               475.3305               495.5562
 Red. masses --      5.5850                 6.7606                 6.9955
 Frc consts  --      0.6678                 0.9000                 1.0122
 IR Inten    --     18.3514                17.5352                73.5243

                     25                     26                     27
                      A                      A                      A
 Frequencies --    524.6158               539.8541               581.1882
 Red. masses --      4.6318                 4.3945                 6.3200
 Frc consts  --      0.7511                 0.7546                 1.2578
 IR Inten    --     25.0185               130.5416                57.3572

                     28                     29                     30
                      A                      A                      A
 Frequencies --    604.6069               615.9834               624.0149
 Red. masses --      5.2622                 3.1531                 6.4556
 Frc consts  --      1.1333                 0.7049                 1.4811
 IR Inten    --    144.1786                 6.6507                 0.1048

                     31                     32                     33
                      A                      A                      A
 Frequencies --    652.5498               693.9935               696.1669
 Red. masses --      3.5294                 6.5598                 2.1110
 Frc consts  --      0.8855                 1.8614                 0.6028
 IR Inten    --      7.8680                15.2615                70.5584

                     34                     35                     36
                      A                      A                      A
 Frequencies --    720.1053               764.4344               809.5287
 Red. masses --      7.0974                 1.6080                 8.4410
 Frc consts  --      2.1684                 0.5536                 3.2592
 IR Inten    --     99.4054                39.8066                 5.8527

                     37                     38                     39
                      A                      A                      A
 Frequencies --    843.3737               851.1226               857.4835
 Red. masses --      5.1206                 1.2488                 2.2250
 Frc consts  --      2.1459                 0.5330                 0.9639
 IR Inten    --     38.7033                 0.0594                71.1205

                     40                     41                     42
                      A                      A                      A
 Frequencies --    884.0365               947.8821               984.8993
 Red. masses --      6.6366                 1.3408                 2.3301
 Frc consts  --      3.0559                 0.7098                 1.3317
 IR Inten    --     10.3201                 0.6895                42.2895

                     43                     44                     45
                      A                      A                      A
 Frequencies --    998.0441              1002.4747              1012.5182
 Red. masses --      1.3877                 2.9190                 5.3142
 Frc consts  --      0.8144                 1.7284                 3.2099
 IR Inten    --      0.5969                31.8935                 6.9066

                     46                     47                     48
                      A                      A                      A
 Frequencies --   1016.7686              1021.9593              1037.1994
 Red. masses --      1.2750                 1.3283                 3.4285
 Frc consts  --      0.7766                 0.8174                 2.1731
 IR Inten    --      0.0896                 0.1351                21.9526

                     49                     50                     51
                      A                      A                      A
 Frequencies --   1059.6964              1071.5962              1100.8278
 Red. masses --      2.6921                 2.9151                 1.6653
 Frc consts  --      1.7812                 1.9723                 1.1890
 IR Inten    --    124.8783                60.2383                47.2160

                     52                     53                     54
                      A                      A                      A
 Frequencies --   1105.2828              1114.4259              1182.6712
 Red. masses --      4.1511                 1.5893                 1.1095
 Frc consts  --      2.9879                 1.1629                 0.9143
 IR Inten    --    276.4253               109.8093                 0.2832

                     55                     56                     57
                      A                      A                      A
 Frequencies --   1196.4733              1200.4827              1242.0732
 Red. masses --      1.2059                 2.9956                18.6391
 Frc consts  --      1.0171                 2.5436                16.9422
 IR Inten    --     13.7611               151.0642               376.9824

                     58                     59                     60
                      A                      A                      A
 Frequencies --   1265.7667              1278.4881              1331.6425
 Red. masses --      3.9880                 2.6906                 2.8842
 Frc consts  --      3.7646                 2.5911                 3.0133
 IR Inten    --     86.0119               171.8552                 0.1876

                     61                     62                     63
                      A                      A                      A
 Frequencies --   1345.3622              1381.1034              1389.5996
 Red. masses --      1.8549                 1.2835                 1.7841
 Frc consts  --      1.9781                 1.4424                 2.0298
 IR Inten    --      9.2196                69.3926                 6.5366

                     64                     65                     66
                      A                      A                      A
 Frequencies --   1446.3580              1460.1139              1475.4109
 Red. masses --      1.0527                 1.0626                 2.1320
 Frc consts  --      1.2976                 1.3347                 2.7344
 IR Inten    --     31.9451                18.3883                30.1381

                     67                     68                     69
                      A                      A                      A
 Frequencies --   1503.3309              1615.5093              1620.9562
 Red. masses --      1.9976                 5.3411                 5.7853
 Frc consts  --      2.6600                 8.2130                 8.9560
 IR Inten    --      4.1425                 9.7026                 0.1445

                     70                     71                     72
                      A                      A                      A
 Frequencies --   1631.8292              1677.5882              1707.6218
 Red. masses --     10.8849                 8.7159                11.7341
 Frc consts  --     17.0775                14.4522                20.1597
 IR Inten    --     19.9933                14.7960               855.0743

                     73                     74                     75
                      A                      A                      A
 Frequencies --   1714.5393              1758.3370              3037.5092
 Red. masses --     10.8186                11.2350                 1.0399
 Frc consts  --     18.7376                20.4657                 5.6529
 IR Inten    --    117.3865               364.8673                 0.1193

                     76                     77                     78
                      A                      A                      A
 Frequencies --   3109.4957              3147.7340              3179.1289
 Red. masses --      1.0924                 1.1056                 1.0872
 Frc consts  --      6.2234                 6.4540                 6.4738
 IR Inten    --      2.5346                 7.6547                 1.0279

                     79                     80                     81
                      A                      A                      A
 Frequencies --   3189.4180              3191.2590              3196.5320
 Red. masses --      1.0897                 1.0882                 1.0938
 Frc consts  --      6.5313                 6.5293                 6.5848
 IR Inten    --     11.0840                 0.5080                 7.3828

                     82                     83                     84
                      A                      A                      A
 Frequencies --   3204.1735              3206.2047              3219.8936
 Red. masses --      1.0968                 1.1000                 1.0936
 Frc consts  --      6.6342                 6.6624                 6.6804
 IR Inten    --     10.8436                 0.1358                 4.3345

 - Thermochemistry -
 -------------------
 Temperature   298.150 Kelvin.  Pressure   1.00000 Atm.
 Atom     1 has atomic number  6 and mass  12.00000

 Molecular mass:   290.02490 amu.
 Principal axes and moments of inertia in atomic units:
                           1         2         3
     Eigenvalues --  3448.350287145.034428187.66246
           X            0.06330   0.42682   0.90212
           Y           -0.07929   0.90322  -0.42178
           Z            0.99484   0.04483  -0.09101
 This molecule is an asymmetric top.
 Rotational symmetry number  1.
 Warning -- assumption of classical behavior for rotation
           may cause significant error
 Rotational temperatures (Kelvin)      0.02512     0.01212     0.01058
 Rotational constants (GHZ):           0.52336     0.25259     0.22042
 Zero-point vibrational energy     553570.5 (Joules/Mol)
                                  132.30652 (Kcal/Mol)
 Warning -- explicit consideration of  29 degrees of freedom as
           vibrations may cause significant error
 Vibrational temperatures:     29.48    43.05    59.09    96.03   116.19
          (Kelvin)            153.18   159.99   215.89   218.66   248.07
                              256.10   297.84   338.34   365.29   389.49
                              428.87   441.85   506.34   585.28   588.14
                              628.16   648.17   683.89   712.99   754.81
                              776.73   836.20   869.89   886.26   897.82
                              938.87   998.50  1001.63  1036.07  1099.85
                             1164.73  1213.43  1224.58  1233.73  1271.93
                             1363.79  1417.05  1435.96  1442.34  1456.79
                             1462.90  1470.37  1492.30  1524.67  1541.79
                             1583.85  1590.26  1603.41  1701.60  1721.46
                             1727.23  1787.07  1821.16  1839.46  1915.94
                             1935.68  1987.10  1999.32  2080.99  2100.78
                             2122.79  2162.96  2324.36  2332.19  2347.84
                             2413.68  2456.89  2466.84  2529.85  4370.30
                             4473.87  4528.89  4574.06  4588.86  4591.51
                             4599.10  4610.09  4613.01  4632.71

 Zero-point correction=                           0.210844 (Hartree/Particle)
 Thermal correction to Energy=                    0.229103
 Thermal correction to Enthalpy=                  0.230047
 Thermal correction to Gibbs Free Energy=         0.162679
 Sum of electronic and zero-point Energies=          -1313.786458
 Sum of electronic and thermal Energies=             -1313.768199
 Sum of electronic and thermal Enthalpies=           -1313.767255
 Sum of electronic and thermal Free Energies=        -1313.834623

                     E (Thermal)             CV                S
                      KCal/Mol        Cal/Mol-Kelvin    Cal/Mol-Kelvin
 Total                  143.764             67.589            141.788
 Electronic               0.000              0.000              0.000
 Translational            0.889              2.981             42.892
 Rotational               0.889              2.981             33.667
 Vibrational            141.987             61.627             65.229
 Vibration     1          0.593              1.986              6.586
 Vibration     2          0.594              1.984              5.835
 Vibration     3          0.594              1.981              5.207
 Vibration     4          0.598              1.970              4.247
 Vibration     5          0.600              1.962              3.872
 Vibration     6          0.605              1.944              3.332
 Vibration     7          0.607              1.940              3.248
 Vibration     8          0.618              1.903              2.672
 Vibration     9          0.619              1.900              2.647
 Vibration    10          0.626              1.876              2.409
 Vibration    11          0.628              1.869              2.349
 Vibration    12          0.641              1.830              2.070
 Vibration    13          0.655              1.787              1.839
 Vibration    14          0.665              1.756              1.703
 Vibration    15          0.674              1.727              1.592
 Vibration    16          0.691              1.677              1.428
 Vibration    17          0.697              1.660              1.378
 Vibration    18          0.728              1.571              1.158
 Vibration    19          0.772              1.455              0.938
 Vibration    20          0.773              1.451              0.931
 Vibration    21          0.797              1.390              0.837
 Vibration    22          0.809              1.360              0.794
 Vibration    23          0.832              1.305              0.723
 Vibration    24          0.851              1.260              0.669
 Vibration    25          0.880              1.196              0.599
 Vibration    26          0.895              1.162              0.566
 Vibration    27          0.938              1.072              0.483
 Vibration    28          0.963              1.022              0.442
 Vibration    29          0.976              0.998              0.423

 Optimization completed.
    -- Stationary point found.
 Normal termination of Gaussian 16 at Sat Feb 10 14:32:56 2024.
