 Q-Chem 5.4, Q-Chem, Inc., Pleasanton, CA (2021)
 Q-Chem 5.4.0 for Intel X86 EM64T Linux

User input:
--------------------------------------------------------------
$molecule
-2 1
O                 -1.2737810000      2.5864140000      0.3420740000
C                 -1.2420620000      1.3010460000      0.2201600000
C                 -2.4105110000      0.4863270000      0.1943640000
C                 -2.3509850000     -0.9035010000      0.0618090000
O                 -3.4939810000     -1.6871740000      0.0377370000
C                 -1.1624450000     -1.6624490000     -0.0601670000
O                 -1.2776810000     -2.9774100000     -0.1780190000
C                  0.0384730000     -0.9017420000     -0.0405930000
C                  1.3118080000     -1.5330020000     -0.1543930000
C                  2.4917350000     -0.8177570000     -0.1380840000
C                  2.4653820000      0.5995150000     -0.0040620000
C                  1.2403680000      1.2428010000      0.1086210000
C                  0.0121430000      0.5541690000      0.0966770000
H                 -3.3790600000      0.9751300000      0.2816810000
H                  1.3137120000     -2.6149100000     -0.2558660000
H                  3.4455990000     -1.3384900000     -0.2276540000
H                  3.3938350000      1.1687620000      0.0094880000
H                  1.1806530000      2.3232790000      0.2122870000
H                 -3.0537260000     -2.5738760000     -0.0642350000
$end
$rem
MAX_SCF_CYCLES=200
BASIS  =  6-311++G(d,p)
GUI  =  2
JOB_TYPE  =  SP
METHOD  =  B3LYP
SOLVENT_METHOD = PCM
$end
$pcm
theory = CPCM
$end
$solvent
dielectric 37.219
opticaldielectric 1.43
$end

--------------------------------------------------------------

             Standard Nuclear Orientation (Angstroms)
    I     Atom           X                Y                Z
 ----------------------------------------------------------------
    1      O      -1.2737810000     2.5864140000     0.3420740000
    2      C      -1.2420620000     1.3010460000     0.2201600000
    3      C      -2.4105110000     0.4863270000     0.1943640000
    4      C      -2.3509850000    -0.9035010000     0.0618090000
    5      O      -3.4939810000    -1.6871740000     0.0377370000
    6      C      -1.1624450000    -1.6624490000    -0.0601670000
    7      O      -1.2776810000    -2.9774100000    -0.1780190000
    8      C       0.0384730000    -0.9017420000    -0.0405930000
    9      C       1.3118080000    -1.5330020000    -0.1543930000
   10      C       2.4917350000    -0.8177570000    -0.1380840000
   11      C       2.4653820000     0.5995150000    -0.0040620000
   12      C       1.2403680000     1.2428010000     0.1086210000
   13      C       0.0121430000     0.5541690000     0.0966770000
   14      H      -3.3790600000     0.9751300000     0.2816810000
   15      H       1.3137120000    -2.6149100000    -0.2558660000
   16      H       3.4455990000    -1.3384900000    -0.2276540000
   17      H       3.3938350000     1.1687620000     0.0094880000
   18      H       1.1806530000     2.3232790000     0.2122870000
   19      H      -3.0537260000    -2.5738760000    -0.0642350000
 ----------------------------------------------------------------

    9    -610.7790264357      3.86e-06  Convergence criterion met
 Total energy in the final basis set =     -610.7790264357

                    Orbital Energies (a.u.)
 --------------------------------------------------------------

 Alpha MOs
 -- Occupied --
-19.1138 -19.0311 -19.0257 -10.1834 -10.1825 -10.1654 -10.1519 -10.1479
-10.1471 -10.1469 -10.1442 -10.1390 -10.1237  -1.0247  -0.9397  -0.9254
 -0.8254  -0.7659  -0.7248  -0.7015  -0.6450  -0.5913  -0.5764  -0.5353
 -0.5022  -0.4794  -0.4486  -0.4312  -0.4210  -0.4019  -0.3911  -0.3820
 -0.3688  -0.3605  -0.3505  -0.3479  -0.3230  -0.3186  -0.3036  -0.2980
 -0.2324  -0.2280  -0.2199  -0.2046  -0.2016  -0.1184

          Ground-State Mulliken Net Atomic Charges

     Atom                 Charge (a.u.)
  ----------------------------------------
      1 O                    -0.712808
      2 C                    -0.369973
      3 C                     0.334939
      4 C                    -0.169889
      5 O                    -0.372478
      6 C                    -0.733725
      7 O                    -0.763526
      8 C                     0.289706
      9 C                     0.008638
     10 C                    -0.404579
     11 C                    -0.464775
     12 C                     0.098861
     13 C                     0.180124
     14 H                     0.157277
     15 H                     0.146210
     16 H                     0.177666
     17 H                     0.172382
     18 H                     0.142020
     19 H                     0.283929
  ----------------------------------------
  Sum of atomic charges =    -2.000000

                    Cartesian Multipole Moments
 -----------------------------------------------------------------
    Charge (ESU x 10^10)
                -9.6064
    Dipole Moment (Debye)
         X      11.6239      Y       1.6208      Z      -0.7822
       Tot      11.7624
    Quadrupole Moments (Debye-Ang)
        XX    -113.0458     XY      -3.6624     YY    -137.5663
        XZ       1.3414     YZ      -4.5531     ZZ     -86.6844

 Total job time:  28.16s(wall), 158.27s(cpu)
        *  Thank you very much for using Q-Chem.  Have a nice day.  *
