 Q-Chem 5.4, Q-Chem, Inc., Pleasanton, CA (2021)
 Q-Chem 5.4.0 for Intel X86 EM64T Linux

User input:
--------------------------------------------------------------
$molecule
0 1
C                  5.6741640000     -4.0408310000     -2.3568650000
O                  4.8645790000     -3.0814480000     -1.6850200000
C                  5.4182860000     -2.2742820000     -0.7591800000
C                  6.7761920000     -2.3443560000     -0.4233730000
C                  7.3128510000     -1.4952130000      0.5382750000
C                  6.5131360000     -0.5635510000      1.1828750000
C                  5.1587820000     -0.4771300000      0.8633160000
C                  4.3596540000      0.5606250000      1.6048460000
O                  4.9178660000      1.2496920000      2.4421280000
C                  2.9206200000      0.6896930000      1.2752360000
C                  2.1143100000      1.6566210000      1.8889390000
O                  2.6688340000      2.4988330000      2.7983370000
C                  0.7351560000      1.7581410000      1.5697560000
C                 -0.0781780000      2.8697760000      2.2005980000
C                 -1.3822360000      3.2250750000      1.4472140000
O                 -2.1745220000      4.0936330000      2.2632570000
C                 -2.1368540000      1.9360740000      1.1253880000
C                 -1.3314260000      0.8692130000      0.3681160000
O                 -1.8845840000     -0.4112370000      0.7338360000
C                 -2.6628490000     -1.0380750000     -0.2378180000
C                 -3.0116100000     -2.4365400000      0.2449470000
C                 -3.9698080000     -3.1382900000     -0.7407740000
N                 -3.3668300000     -3.5639950000     -2.0141730000
C                 -5.1824530000     -2.2310110000     -1.0199230000
O                 -5.9717380000     -2.2467540000      0.1705730000
C                 -4.7247030000     -0.8155200000     -1.4205050000
C                 -5.8637530000      0.1734640000     -1.6234170000
O                 -3.8492040000     -0.2578000000     -0.4364760000
C                  0.1517010000      0.8576540000      0.6917330000
C                  0.9642870000     -0.0897510000      0.0250130000
O                  0.3745990000     -0.8621450000     -0.8973560000
C                  2.3418080000     -0.1822580000      0.3125410000
C                  3.1432270000     -1.1908300000     -0.4113430000
O                  2.5962540000     -1.9114440000     -1.2634840000
C                  4.5823520000     -1.3216830000     -0.1065170000
C                 -1.0506610000      4.0391720000      0.1867330000
O                 -0.6133740000      3.5056900000     -0.8119100000
C                 -1.2568450000      5.5427940000      0.2048020000
O                 -0.8029070000      6.1363310000     -0.9841610000
H                  5.0015960000     -4.5534980000     -3.0417150000
H                  6.1014980000     -4.7652470000     -1.6560540000
H                  6.4756540000     -3.5595730000     -2.9264700000
H                  7.4188480000     -3.0624940000     -0.9122560000
H                  8.3671940000     -1.5678890000      0.7808690000
H                  6.9093880000      0.1064470000      1.9335400000
H                  1.9922690000      3.0700280000      3.1747290000
H                  0.5172170000      3.7862570000      2.2916300000
H                 -0.3774710000      2.5915760000      3.2203790000
H                 -2.5966010000      3.5729330000      2.9551120000
H                 -3.0583860000      2.1479020000      0.5813060000
H                 -2.4265360000      1.4862790000      2.0824980000
H                 -1.4403620000      1.0103100000     -0.7090140000
H                 -2.1103210000     -1.0610690000     -1.1899330000
H                 -2.0936580000     -3.0180450000      0.3640450000
H                 -3.4918280000     -2.3419920000      1.2220370000
H                 -4.3655270000     -4.0384660000     -0.2647230000
H                 -2.7565040000     -2.8547490000     -2.4067310000
H                 -2.7973060000     -4.3913010000     -1.8748630000
H                 -5.7423100000     -2.6625450000     -1.8589830000
H                 -6.7026030000     -1.6286520000      0.0772940000
H                 -4.1794620000     -0.9177430000     -2.3734530000
H                 -6.5753610000     -0.2026290000     -2.3635580000
H                 -5.4732470000      1.1292320000     -1.9777580000
H                 -6.3914570000      0.3645480000     -0.6844180000
H                  1.0988010000     -1.4461730000     -1.2628220000
H                 -2.3256250000      5.7354470000      0.3629480000
H                 -0.7389190000      5.9681600000      1.0737110000
H                 -0.5131030000      5.4146150000     -1.5635100000
$end
$rem
MAX_SCF_CYCLES=200
SCF_Guess=core
BASIS  =  6-311++G(d,p)
GUI  =  2
JOB_TYPE  =  SP
METHOD  =  B3LYP
THRESH = 14
SCF_CONVERGENCE = 8
SOLVENT_METHOD = COSMO
$end
$solvent
dielectric 37.219
opticaldielectric 1.43
$end

--------------------------------------------------------------

             Standard Nuclear Orientation (Angstroms)
    I     Atom           X                Y                Z
 ----------------------------------------------------------------
    1      C       5.7588556375    -4.0623596834    -1.4526638056
    2      O       4.8426386459    -3.0444163596    -1.0633604139
    3      C       5.3072370756    -1.9035665435    -0.5175599969
    4      C       6.6738323499    -1.6768469789    -0.3111598832
    5      C       7.1167754251    -0.4868661768     0.2559033543
    6      C       6.2133201542     0.4972148683     0.6279253880
    7      C       4.8484559961     0.2917443756     0.4309761366
    8      C       3.9336668338     1.4078851139     0.8585254111
    9      O       4.4168819470     2.4090479032     1.3601540972
   10      C       2.4781495241     1.2276186429     0.6461730755
   11      C       1.5612565826     2.2330238769     0.9781137249
   12      O       2.0204454864     3.4009242110     1.4967436528
   13      C       0.1695941491     2.0385022326     0.7788981259
   14      C      -0.7758935494     3.1834702611     1.0794100618
   15      C      -2.1532942293     3.0855207580     0.3811512559
   16      O      -3.0315525642     4.0707949956     0.9342635925
   17      C      -2.7128985361     1.6779991460     0.5818246468
   18      C      -1.7881139918     0.5301971120     0.1485907888
   19      O      -2.1179022490    -0.6069060764     0.9717087258
   20      C      -2.8342404902    -1.6249711588     0.3447025084
   21      C      -2.9385069673    -2.8050456243     1.2970435157
   22      C      -3.8214233802    -3.9210035646     0.6992652602
   23      N      -3.2202529405    -4.6761785279    -0.4118859922
   24      C      -5.1720189269    -3.3307240078     0.2531162286
   25      O      -5.8923799581    -3.0388257895     1.4516047743
   26      C      -4.9589842662    -2.0924059826    -0.6383996007
   27      C      -6.2460598737    -1.3903713291    -1.0473999190
   28      O      -4.1353854103    -1.1217341304     0.0137846141
   29      C      -0.3076169573     0.8234249279     0.3119102609
   30      C       0.6099424688    -0.1812268769    -0.0768663466
   31      O       0.1046037096    -1.2932204232    -0.6274951618
   32      C       1.9971044183     0.0105865983     0.0898169400
   33      C       2.9104529969    -1.0720503168    -0.3311220370
   34      O       2.4425274114    -2.1061992898    -0.8372740216
   35      C       4.3651710327    -0.9019494164    -0.1414294343
   36      C      -2.0118409390     3.4525968845    -1.1043635847
   37      O      -1.5445010954     2.6700704450    -1.9058351364
   38      C      -2.4479273148     4.8304623899    -1.5680798463
   39      O      -2.1481181871     5.0328866968    -2.9249577997
   40      H       5.1425810994    -4.8619388321    -1.8589562727
   41      H       6.3259930821    -4.4397264191    -0.5956466459
   42      H       6.4481909227    -3.7063413376    -2.2250064372
   43      H       7.3964809657    -2.4292382097    -0.5929788374
   44      H       8.1798480283    -0.3340546897     0.4052288415
   45      H       6.5356066020     1.4298254804     1.0703955018
   46      H       1.2818613245     3.9735843314     1.7252796178
   47      H      -0.3264171942     4.1445181561     0.8017818859
   48      H      -0.9800340233     3.2362858350     2.1575853768
   49      H      -3.3346272148     3.7694183318     1.7975482361
   50      H      -3.6807147173     1.5682595085     0.0904931877
   51      H      -2.8838588941     1.5509333074     1.6574256806
   52      H      -1.9682020866     0.2771012582    -0.8980682862
   53      H      -2.3302666670    -1.9017468880    -0.5943099885
   54      H      -1.9368175308    -3.1856415348     1.5132223737
   55      H      -3.3810647651    -2.4437394709     2.2286303228
   56      H      -4.0497166537    -4.6460514477     1.4839452338
   57      H      -2.7466196603    -4.0721204590    -1.0755235917
   58      H      -2.5232549648    -5.3237230672    -0.0610584394
   59      H      -5.6969310411    -4.0931912856    -0.3357760026
   60      H      -6.7139294006    -2.5910036522     1.2292839492
   61      H      -4.4499372752    -2.4441025602    -1.5511031992
   62      H      -6.9246663100    -2.0870042345    -1.5472363822
   63      H      -6.0258157023    -0.5724705192    -1.7359314871
   64      H      -6.7522571166    -0.9585433544    -0.1790724000
   65      H       0.8927004940    -1.8678696864    -0.8461371559
   66      H      -3.5250184508     4.9250778764    -1.3800941588
   67      H      -1.9620282042     5.5920011165    -0.9450652012
   68      H      -1.7773472884     4.2002175131    -3.2561625372
 ----------------------------------------------------------------

   40   -1929.0721608930      4.88e-09  Convergence criterion met
 Total energy in the final basis set =    -1929.0721608930
   11   -1929.1263339700      5.41e-09  Convergence criterion met
 Total energy in the final basis set =    -1929.1263339700

                    Orbital Energies (a.u.)
 --------------------------------------------------------------

 Alpha MOs
 -- Occupied --
-19.1720 -19.1711 -19.1534 -19.1491 -19.1469 -19.1418 -19.1369 -19.1324
-19.1308 -19.1293 -19.1216 -14.2990 -10.2878 -10.2871 -10.2796 -10.2709
-10.2661 -10.2655 -10.2653 -10.2619 -10.2447 -10.2343 -10.2272 -10.2237
-10.2219 -10.2179 -10.2091 -10.2078 -10.2078 -10.2076 -10.2070 -10.2052
-10.2048 -10.1973 -10.1923 -10.1861 -10.1842 -10.1661 -10.1634  -1.0938
 -1.0919  -1.0899  -1.0874  -1.0797  -1.0589  -1.0535  -1.0533  -1.0375
 -1.0369  -1.0169  -0.8943  -0.8935  -0.8818  -0.8459  -0.8035  -0.7973
 -0.7825  -0.7751  -0.7744  -0.7663  -0.7523  -0.7412  -0.7159  -0.7046
 -0.6901  -0.6812  -0.6659  -0.6492  -0.6361  -0.6236  -0.6207  -0.6187
 -0.5934  -0.5903  -0.5713  -0.5646  -0.5590  -0.5528  -0.5443  -0.5346
 -0.5276  -0.5209  -0.5137  -0.5122  -0.5054  -0.5012  -0.4949  -0.4941
 -0.4910  -0.4871  -0.4844  -0.4837  -0.4813  -0.4734  -0.4672  -0.4658
 -0.4598  -0.4523  -0.4495  -0.4468  -0.4394  -0.4363  -0.4279  -0.4269
 -0.4265  -0.4163  -0.4140  -0.4078  -0.4048  -0.4014  -0.3999  -0.3973
 -0.3941  -0.3932  -0.3914  -0.3883  -0.3856  -0.3832  -0.3826  -0.3790
 -0.3772  -0.3717  -0.3665  -0.3596  -0.3511  -0.3459  -0.3406  -0.3395
 -0.3294  -0.3233  -0.3107  -0.2984  -0.2941  -0.2907  -0.2868  -0.2833
 -0.2817  -0.2703  -0.2660  -0.2606  -0.2551  -0.2485  -0.2301

          Ground-State Mulliken Net Atomic Charges

     Atom                 Charge (a.u.)
  ----------------------------------------
      1 C                    -0.291728
      2 O                    -0.167246
      3 C                     0.159660
      4 C                    -0.089801
      5 C                    -0.432359
      6 C                     0.057816
      7 C                     0.071616
      8 C                    -0.523589
      9 O                    -0.310167
     10 C                    -0.131740
     11 C                    -0.263038
     12 O                    -0.241443
     13 C                     0.304666
     14 C                    -0.686926
     15 C                     0.420129
     16 O                    -0.232118
     17 C                    -0.351447
     18 C                    -0.591728
     19 O                     0.142613
     20 C                    -0.265793
     21 C                    -0.489853
     22 C                     0.127261
     23 N                    -0.485934
     24 C                    -0.295562
     25 O                    -0.288951
     26 C                    -0.303713
     27 C                    -0.660303
     28 O                     0.038091
     29 C                     0.281403
     30 C                    -0.345210
     31 O                    -0.391681
     32 C                     0.831425
     33 C                    -0.499873
     34 O                    -0.348809
     35 C                     0.193327
     36 C                    -0.204117
     37 O                    -0.274223
     38 C                    -0.373478
     39 O                    -0.346941
     40 H                     0.214984
     41 H                     0.177858
     42 H                     0.178793
     43 H                     0.220484
     44 H                     0.241383
     45 H                     0.190278
     46 H                     0.359708
     47 H                     0.176276
     48 H                     0.301732
     49 H                     0.337337
     50 H                     0.309034
     51 H                     0.246717
     52 H                     0.304661
     53 H                     0.229249
     54 H                     0.209640
     55 H                     0.180954
     56 H                     0.268726
     57 H                     0.254393
     58 H                     0.292794
     59 H                     0.247375
     60 H                     0.292635
     61 H                     0.175563
     62 H                     0.177758
     63 H                     0.178409
     64 H                     0.171204
     65 H                     0.527685
     66 H                     0.243701
     67 H                     0.242048
     68 H                     0.308384
  ----------------------------------------
  Sum of atomic charges =     0.000000

                    Cartesian Multipole Moments
 -----------------------------------------------------------------
    Charge (ESU x 10^10)
                -0.0000
    Dipole Moment (Debye)
         X       0.8397      Y      -2.7312      Z       1.3352
       Tot       3.1540
    Quadrupole Moments (Debye-Ang)
        XX    -178.9375     XY     -39.7270     YY    -230.9621
        XZ     -12.5098     YZ      24.4629     ZZ    -237.9017

 Total job time:  3860.08s(wall), 30189.71s(cpu)
        *  Thank you very much for using Q-Chem.  Have a nice day.  *
