 Q-Chem 5.4, Q-Chem, Inc., Pleasanton, CA (2021)
 Q-Chem 5.4.0 for Intel X86 EM64T Linux

User input:
--------------------------------------------------------------
$molecule
-1 2
C                  4.0673440000      1.6596040000      0.1972350000
C                  3.2449780000      0.4812870000      0.6439810000
O                  3.0118830000      0.1773440000      1.7843120000
O                  2.8335840000     -0.2378820000     -0.4388610000
C                  1.7795320000     -1.1474410000     -0.2908870000
C                  2.1118670000     -2.4812120000     -0.3672350000
C                  1.1000670000     -3.4593100000     -0.3268820000
C                 -0.2169360000     -3.0704060000     -0.2187500000
C                 -0.5758310000     -1.7076520000     -0.1477760000
C                 -2.0034630000     -1.3851760000     -0.0627160000
O                 -2.8825550000     -2.2810270000     -0.0364720000
C                 -2.3472440000      0.0342090000     -0.0199540000
C                 -3.7051110000      0.4167250000      0.0475290000
C                 -4.0699650000      1.7469880000      0.0896050000
C                 -3.0750970000      2.7490520000      0.0674030000
C                 -1.7422170000      2.3963170000      0.0031360000
C                 -1.3448930000      1.0412090000     -0.0441430000
C                  0.0861090000      0.7273420000     -0.1097950000
O                  0.9410720000      1.6507680000     -0.1053420000
C                  0.4378130000     -0.6933500000     -0.1765760000
H                  4.7442250000      1.3782850000     -0.6121290000
H                  4.6235380000      2.0637040000      1.0421130000
H                  3.3658030000      2.4053540000     -0.1830940000
H                  3.1573980000     -2.7514290000     -0.4603750000
H                  1.3637460000     -4.5106370000     -0.3820000000
H                 -1.0235920000     -3.7928140000     -0.1900830000
H                 -4.4445460000     -0.3755300000      0.0650850000
H                 -5.1186690000      2.0243010000      0.1413550000
H                 -3.3598350000      3.7964850000      0.1026930000
H                 -0.9590060000      3.1448910000     -0.0113770000
$end

$rem
BASIS  =  6-311++G(d,p)
GUI  =  2
JOB_TYPE  =  SP
METHOD  =  B3LYP
SCF_CONVERGENCE  = 8
SOLVENT_METHOD = sm12
$end

$smx
solvent dimethylformamide
charges CM5
$end

--------------------------------------------------------------

             Standard Nuclear Orientation (Angstroms)
    I     Atom           X                Y                Z
 ----------------------------------------------------------------
    1      C       4.0673440000     1.6596040000     0.1972350000
    2      C       3.2449780000     0.4812870000     0.6439810000
    3      O       3.0118830000     0.1773440000     1.7843120000
    4      O       2.8335840000    -0.2378820000    -0.4388610000
    5      C       1.7795320000    -1.1474410000    -0.2908870000
    6      C       2.1118670000    -2.4812120000    -0.3672350000
    7      C       1.1000670000    -3.4593100000    -0.3268820000
    8      C      -0.2169360000    -3.0704060000    -0.2187500000
    9      C      -0.5758310000    -1.7076520000    -0.1477760000
   10      C      -2.0034630000    -1.3851760000    -0.0627160000
   11      O      -2.8825550000    -2.2810270000    -0.0364720000
   12      C      -2.3472440000     0.0342090000    -0.0199540000
   13      C      -3.7051110000     0.4167250000     0.0475290000
   14      C      -4.0699650000     1.7469880000     0.0896050000
   15      C      -3.0750970000     2.7490520000     0.0674030000
   16      C      -1.7422170000     2.3963170000     0.0031360000
   17      C      -1.3448930000     1.0412090000    -0.0441430000
   18      C       0.0861090000     0.7273420000    -0.1097950000
   19      O       0.9410720000     1.6507680000    -0.1053420000
   20      C       0.4378130000    -0.6933500000    -0.1765760000
   21      H       4.7442250000     1.3782850000    -0.6121290000
   22      H       4.6235380000     2.0637040000     1.0421130000
   23      H       3.3658030000     2.4053540000    -0.1830940000
   24      H       3.1573980000    -2.7514290000    -0.4603750000
   25      H       1.3637460000    -4.5106370000    -0.3820000000
   26      H      -1.0235920000    -3.7928140000    -0.1900830000
   27      H      -4.4445460000    -0.3755300000     0.0650850000
   28      H      -5.1186690000     2.0243010000     0.1413550000
   29      H      -3.3598350000     3.7964850000     0.1026930000
   30      H      -0.9590060000     3.1448910000    -0.0113770000
 ----------------------------------------------------------------

   18    -916.9593794733      7.80e-09  Convergence criterion met
 Total energy in the final basis set =     -917.0471589282

                    Orbital Energies (a.u.)
 --------------------------------------------------------------

 Alpha MOs
 -- Occupied --
-19.1708 -19.1132 -19.0796 -19.0795 -10.3072 -10.2455 -10.2335 -10.2290
-10.1899 -10.1850 -10.1846 -10.1835 -10.1830 -10.1829 -10.1817 -10.1808
-10.1797 -10.1794 -10.1776 -10.1716  -1.1132  -1.0307  -1.0073  -1.0052
 -0.8709  -0.8614  -0.7962  -0.7779  -0.7591  -0.7506  -0.7361  -0.6782
 -0.6540  -0.6335  -0.6239  -0.5828  -0.5531  -0.5426  -0.5249  -0.4916
 -0.4879  -0.4833  -0.4796  -0.4700  -0.4634  -0.4540  -0.4333  -0.4298
 -0.4241  -0.4146  -0.4099  -0.4079  -0.3985  -0.3922  -0.3848  -0.3763
 -0.3729  -0.3642  -0.3575  -0.3458  -0.3442  -0.3214  -0.2852  -0.2755
 -0.2651  -0.2598  -0.2589  -0.2491  -0.2392  -0.1479

 Beta MOs
 -- Occupied --
-19.1708 -19.1132 -19.0737 -19.0736 -10.3072 -10.2455 -10.2320 -10.2276
-10.1891 -10.1844 -10.1836 -10.1831 -10.1826 -10.1824 -10.1809 -10.1802
-10.1796 -10.1794 -10.1776 -10.1716  -1.1131  -1.0306  -0.9972  -0.9948
 -0.8683  -0.8603  -0.7922  -0.7768  -0.7572  -0.7486  -0.7351  -0.6713
 -0.6527  -0.6314  -0.6224  -0.5816  -0.5509  -0.5408  -0.5235  -0.4913
 -0.4872  -0.4822  -0.4773  -0.4692  -0.4621  -0.4534  -0.4330  -0.4229
 -0.4197  -0.4091  -0.4070  -0.4059  -0.3971  -0.3910  -0.3767  -0.3706
 -0.3637  -0.3607  -0.3555  -0.3432  -0.3337  -0.3203  -0.2850  -0.2608
 -0.2548  -0.2529  -0.2495  -0.2436  -0.2339

          Ground-State Mulliken Net Atomic Charges

     Atom                 Charge (a.u.)    Spin (a.u.)
  --------------------------------------------------------
      1 C                     0.084081       0.003068
      2 C                    -0.240454      -0.001981
      3 O                    -0.283728      -0.000414
      4 O                     0.056481      -0.001501
      5 C                    -0.171635       0.040691
      6 C                     1.893901       0.042863
      7 C                     1.039717       0.050906
      8 C                     0.083542       0.026218
      9 C                    -0.859884       0.058365
     10 C                    -2.176437       0.068623
     11 O                    -0.296063       0.220536
     12 C                    -1.455600       0.016473
     13 C                    -0.075967       0.025181
     14 C                     1.033707       0.032479
     15 C                     0.937606       0.037126
     16 C                     0.138737       0.030253
     17 C                    -0.725515       0.028764
     18 C                    -1.638663       0.063779
     19 O                    -0.223725       0.227706
     20 C                    -0.633579       0.048293
     21 H                     0.231336       0.000391
     22 H                     0.213653      -0.000213
     23 H                     0.187917      -0.000678
     24 H                     0.299370      -0.003560
     25 H                     0.387801      -0.003581
     26 H                     0.161674      -0.001439
     27 H                     0.156128      -0.001654
     28 H                     0.359856      -0.002602
     29 H                     0.357713      -0.002975
     30 H                     0.158027      -0.001116
  --------------------------------------------------------
  Sum of atomic charges =    -1.000000

                    Cartesian Multipole Moments
 -----------------------------------------------------------------
    Charge (ESU x 10^10)
                -4.8032
    Dipole Moment (Debye)
         X       3.6786      Y       2.3965      Z      -1.7165
       Tot       4.7140
    Quadrupole Moments (Debye-Ang)
        XX    -137.4207     XY     -12.6575     YY    -128.8412
        XZ      -6.7297     YZ       0.5154     ZZ    -129.4664

 Total job time:  965.77s(wall), 7307.28s(cpu)
        *  Thank you very much for using Q-Chem.  Have a nice day.  *
