 Q-Chem 5.4, Q-Chem, Inc., Pleasanton, CA (2021)
 Q-Chem 5.4.0 for Intel X86 EM64T Linux

User input:
--------------------------------------------------------------
$molecule
0 1
C                 -2.5490400000      4.1040210000      4.5039600000
C                 -2.9291840000      3.1892200000      5.4800860000
C                 -2.2433370000      1.9792510000      5.6065270000
C                 -1.4790450000      3.8055180000      3.6556210000
C                 -0.7874550000      2.5901690000      3.7795440000
C                 -1.1787470000      1.6788280000      4.7591350000
C                 -1.0596330000      4.7602580000      2.6189400000
C                  0.1025930000      4.3965850000      1.7529910000
C                  0.8062890000      3.2411810000      1.8676140000
C                  0.3604650000      2.2444350000      2.8675180000
O                 -1.5930600000      5.8469080000      2.4236400000
O                  0.8942940000      1.1510480000      2.9630460000
O                  0.4019280000      5.3385200000      0.8432160000
H                 -3.0656230000      5.0485270000      4.3846530000
H                 -3.7572930000      3.4158150000      6.1415310000
H                 -2.5406970000      1.2676000000      6.3684230000
H                 -0.6385890000      0.7440190000      4.8423020000
H                 -0.2347370000      6.0652420000      0.9891630000
C                  3.2298270000      2.4276020000      1.6246630000
C                  3.6277200000      2.9659410000      2.8532620000
C                  4.0515040000      1.4775910000      1.0165440000
C                  5.2294740000      1.0567690000      1.6336380000
C                  5.6111480000      1.5886450000      2.8627160000
C                  4.8054520000      2.5516700000      3.4690480000
H                  3.0133820000      3.7186030000      3.3376870000
H                  3.7686130000      1.0810590000      0.0500750000
H                  5.8517050000      0.3127720000      1.1478130000
H                  5.0943360000      2.9815600000      4.4220180000
H                  6.5271610000      1.2612040000      3.3416560000
C                  1.9811490000      2.9657710000      0.9214390000
H                  2.2693780000      3.9485130000      0.5384960000
N                  1.6161490000      2.2066650000     -0.2828070000
C                  0.8844010000      0.9433430000     -0.1470970000
C                  0.7754480000      0.2442800000     -1.5029610000
C                  0.0044590000     -1.0785240000     -1.4347740000
C                 -0.1042890000     -1.7913580000     -2.7875290000
C                 -0.8717330000     -3.1166190000     -2.7227880000
C                 -0.9798020000     -3.8310860000     -4.0747120000
C                 -1.7452220000     -5.1575930000     -4.0099020000
C                 -1.8531330000     -5.8722660000     -5.3617510000
C                 -2.6173690000     -7.1994940000     -5.2968290000
C                 -2.7255030000     -7.9141580000     -6.6484480000
C                 -3.4888810000     -9.2419580000     -6.5845940000
C                 -3.5915420000     -9.9481480000     -7.9397130000
H                  1.1307940000      2.8220460000     -0.9257020000
H                 -0.1274730000      1.0812290000      0.2678470000
H                  1.4216640000      0.3101310000      0.5615380000
H                  1.7841350000      0.0702290000     -1.8937490000
H                  0.2808020000      0.9154180000     -2.2185720000
H                 -1.0036800000     -0.8940540000     -1.0418650000
H                  0.4937090000     -1.7449830000     -0.7131570000
H                  0.9037100000     -1.9761230000     -3.1806560000
H                 -0.5936540000     -1.1247840000     -3.5096580000
H                 -1.8800100000     -2.9318600000     -2.3297450000
H                 -0.3823710000     -3.7824170000     -2.0001290000
H                  0.0285150000     -4.0146410000     -4.4680360000
H                 -1.4701110000     -3.1656700000     -4.7972430000
H                 -2.7535640000     -4.9742720000     -3.6163710000
H                 -1.2546610000     -5.8228990000     -3.2875130000
H                 -0.8448150000     -6.0548700000     -5.7555470000
H                 -2.3443440000     -5.2072680000     -6.0840230000
H                 -3.6256990000     -7.0170690000     -4.9028110000
H                 -2.1259020000     -7.8645720000     -4.5747890000
H                 -1.7174740000     -8.0969520000     -7.0433870000
H                 -3.2176640000     -7.2500720000     -7.3711600000
H                 -4.4963230000     -9.0598360000     -6.1907710000
H                 -2.9969950000     -9.9060880000     -5.8633670000
H                 -4.1102170000     -9.3227620000     -8.6733630000
H                 -4.1410160000    -10.8903510000     -7.8596790000
H                 -2.5997440000    -10.1756610000     -8.3433740000
$end
$rem
MAX_SCF_CYCLES=200
BASIS  =  6-311++G(d,p)
GUI  =  2
JOB_TYPE  =  SP
METHOD  =  B3LYP
SCF_ALGORITHM = RCA_DIIS
SCF_CONVERGENCE = 8
scf_guess = GWH
THRESH = 14
SOLVENT_METHOD = PCM
$end
$pcm
theory = CPCM
$end
$solvent
dielectric 37.219
opticaldielectric 1.43
$end

--------------------------------------------------------------

             Standard Nuclear Orientation (Angstroms)
    I     Atom           X                Y                Z
 ----------------------------------------------------------------
    1      C      -2.5490400000     4.1040210000     4.5039600000
    2      C      -2.9291840000     3.1892200000     5.4800860000
    3      C      -2.2433370000     1.9792510000     5.6065270000
    4      C      -1.4790450000     3.8055180000     3.6556210000
    5      C      -0.7874550000     2.5901690000     3.7795440000
    6      C      -1.1787470000     1.6788280000     4.7591350000
    7      C      -1.0596330000     4.7602580000     2.6189400000
    8      C       0.1025930000     4.3965850000     1.7529910000
    9      C       0.8062890000     3.2411810000     1.8676140000
   10      C       0.3604650000     2.2444350000     2.8675180000
   11      O      -1.5930600000     5.8469080000     2.4236400000
   12      O       0.8942940000     1.1510480000     2.9630460000
   13      O       0.4019280000     5.3385200000     0.8432160000
   14      H      -3.0656230000     5.0485270000     4.3846530000
   15      H      -3.7572930000     3.4158150000     6.1415310000
   16      H      -2.5406970000     1.2676000000     6.3684230000
   17      H      -0.6385890000     0.7440190000     4.8423020000
   18      H      -0.2347370000     6.0652420000     0.9891630000
   19      C       3.2298270000     2.4276020000     1.6246630000
   20      C       3.6277200000     2.9659410000     2.8532620000
   21      C       4.0515040000     1.4775910000     1.0165440000
   22      C       5.2294740000     1.0567690000     1.6336380000
   23      C       5.6111480000     1.5886450000     2.8627160000
   24      C       4.8054520000     2.5516700000     3.4690480000
   25      H       3.0133820000     3.7186030000     3.3376870000
   26      H       3.7686130000     1.0810590000     0.0500750000
   27      H       5.8517050000     0.3127720000     1.1478130000
   28      H       5.0943360000     2.9815600000     4.4220180000
   29      H       6.5271610000     1.2612040000     3.3416560000
   30      C       1.9811490000     2.9657710000     0.9214390000
   31      H       2.2693780000     3.9485130000     0.5384960000
   32      N       1.6161490000     2.2066650000    -0.2828070000
   33      C       0.8844010000     0.9433430000    -0.1470970000
   34      C       0.7754480000     0.2442800000    -1.5029610000
   35      C       0.0044590000    -1.0785240000    -1.4347740000
   36      C      -0.1042890000    -1.7913580000    -2.7875290000
   37      C      -0.8717330000    -3.1166190000    -2.7227880000
   38      C      -0.9798020000    -3.8310860000    -4.0747120000
   39      C      -1.7452220000    -5.1575930000    -4.0099020000
   40      C      -1.8531330000    -5.8722660000    -5.3617510000
   41      C      -2.6173690000    -7.1994940000    -5.2968290000
   42      C      -2.7255030000    -7.9141580000    -6.6484480000
   43      C      -3.4888810000    -9.2419580000    -6.5845940000
   44      C      -3.5915420000    -9.9481480000    -7.9397130000
   45      H       1.1307940000     2.8220460000    -0.9257020000
   46      H      -0.1274730000     1.0812290000     0.2678470000
   47      H       1.4216640000     0.3101310000     0.5615380000
   48      H       1.7841350000     0.0702290000    -1.8937490000
   49      H       0.2808020000     0.9154180000    -2.2185720000
   50      H      -1.0036800000    -0.8940540000    -1.0418650000
   51      H       0.4937090000    -1.7449830000    -0.7131570000
   52      H       0.9037100000    -1.9761230000    -3.1806560000
   53      H      -0.5936540000    -1.1247840000    -3.5096580000
   54      H      -1.8800100000    -2.9318600000    -2.3297450000
   55      H      -0.3823710000    -3.7824170000    -2.0001290000
   56      H       0.0285150000    -4.0146410000    -4.4680360000
   57      H      -1.4701110000    -3.1656700000    -4.7972430000
   58      H      -2.7535640000    -4.9742720000    -3.6163710000
   59      H      -1.2546610000    -5.8228990000    -3.2875130000
   60      H      -0.8448150000    -6.0548700000    -5.7555470000
   61      H      -2.3443440000    -5.2072680000    -6.0840230000
   62      H      -3.6256990000    -7.0170690000    -4.9028110000
   63      H      -2.1259020000    -7.8645720000    -4.5747890000
   64      H      -1.7174740000    -8.0969520000    -7.0433870000
   65      H      -3.2176640000    -7.2500720000    -7.3711600000
   66      H      -4.4963230000    -9.0598360000    -6.1907710000
   67      H      -2.9969950000    -9.9060880000    -5.8633670000
   68      H      -4.1102170000    -9.3227620000    -8.6733630000
   69      H      -4.1410160000   -10.8903510000    -7.8596790000
   70      H      -2.5997440000   -10.1756610000    -8.3433740000
 ----------------------------------------------------------------

   96   -1408.2139541232      8.86E-09 Convergence criterion met
 Total energy in the final basis set = -1408.21395412

                    Orbital Energies (a.u.)
 --------------------------------------------------------------

 Alpha MOs
 -- Occupied --
-19.1806 -19.1513 -19.1287 -14.3031 -10.2951 -10.2823 -10.2715 -10.2211
-10.2108 -10.2098 -10.2053 -10.2011 -10.1990 -10.1970 -10.1968 -10.1859
-10.1849 -10.1750 -10.1743 -10.1729 -10.1726 -10.1700 -10.1587 -10.1583
-10.1580 -10.1565 -10.1559 -10.1558 -10.1557 -10.1556 -10.1555 -10.1554
-10.1519  -1.1110  -1.0687  -1.0646  -0.9158  -0.8925  -0.8586  -0.8370
 -0.8101  -0.7998  -0.7886  -0.7802  -0.7760  -0.7621  -0.7499  -0.7473
 -0.7219  -0.7055  -0.6884  -0.6698  -0.6537  -0.6422  -0.6268  -0.6089
 -0.6072  -0.6042  -0.5828  -0.5798  -0.5749  -0.5730  -0.5688  -0.5676
 -0.5442  -0.5222  -0.5149  -0.4992  -0.4916  -0.4829  -0.4824  -0.4758
 -0.4709  -0.4686  -0.4601  -0.4578  -0.4530  -0.4519  -0.4462  -0.4412
 -0.4357  -0.4295  -0.4278  -0.4259  -0.4201  -0.4184  -0.4110  -0.4086
 -0.4067  -0.4041  -0.3983  -0.3896  -0.3839  -0.3806  -0.3771  -0.3717
 -0.3701  -0.3667  -0.3625  -0.3572  -0.3476  -0.3436  -0.3415  -0.3381
 -0.3322  -0.3258  -0.3256  -0.3230  -0.3190  -0.3187  -0.3161  -0.3158
 -0.3059  -0.2930  -0.2913  -0.2843  -0.2802  -0.2684  -0.2584  -0.2460
 -0.2311

          Ground-State Mulliken Net Atomic Charges

     Atom                 Charge (a.u.)
  ----------------------------------------
      1 C                     0.134089
      2 C                    -0.505022
      3 C                    -0.461322
      4 C                     0.448363
      5 C                     0.359371
      6 C                    -0.069611
      7 C                    -0.280481
      8 C                    -0.317676
      9 C                     0.411554
     10 C                    -0.045723
     11 O                    -0.315985
     12 O                    -0.238453
     13 O                    -0.225302
     14 H                     0.224457
     15 H                     0.218202
     16 H                     0.231393
     17 H                     0.209809
     18 H                     0.329274
     19 C                     0.382966
     20 C                    -0.373567
     21 C                    -0.153459
     22 C                    -0.321050
     23 C                    -0.400707
     24 C                    -0.386678
     25 H                     0.200820
     26 H                     0.197750
     27 H                     0.218978
     28 H                     0.212117
     29 H                     0.188104
     30 C                    -0.074861
     31 H                     0.272358
     32 N                    -0.041997
     33 C                    -0.640435
     34 C                    -0.713875
     35 C                     0.184230
     36 C                    -0.240318
     37 C                    -0.399487
     38 C                    -0.377417
     39 C                    -0.235841
     40 C                    -0.081089
     41 C                    -0.128490
     42 C                    -0.272697
     43 C                    -0.236245
     44 C                    -0.702823
     45 H                     0.323857
     46 H                     0.191370
     47 H                     0.217898
     48 H                     0.149027
     49 H                     0.135888
     50 H                     0.114755
     51 H                     0.118537
     52 H                     0.130639
     53 H                     0.132603
     54 H                     0.137149
     55 H                     0.136562
     56 H                     0.136968
     57 H                     0.135882
     58 H                     0.133367
     59 H                     0.132769
     60 H                     0.132431
     61 H                     0.132172
     62 H                     0.130910
     63 H                     0.130482
     64 H                     0.127653
     65 H                     0.126988
     66 H                     0.135387
     67 H                     0.135103
     68 H                     0.144691
     69 H                     0.148956
     70 H                     0.144729
  ----------------------------------------
  Sum of atomic charges =     0.000000

                    Cartesian Multipole Moments
 -----------------------------------------------------------------
    Charge (ESU x 10^10)
                -0.0000
    Dipole Moment (Debye)
         X      -4.3087      Y       1.0466      Z       2.2311
       Tot       4.9637
    Quadrupole Moments (Debye-Ang)
        XX    -201.2464     XY      -9.5056     YY    -201.9902
        XZ     -14.1096     YZ       8.1392     ZZ    -180.6957

 Total job time:  6819.60s(wall), 41329.22s(cpu)
        *  Thank you very much for using Q-Chem.  Have a nice day.  *
