 Q-Chem 5.4, Q-Chem, Inc., Pleasanton, CA (2021)
 Q-Chem 5.4.0 for Intel X86 EM64T Linux

User input:
--------------------------------------------------------------
$molecule
-2 1
C                 -1.3537460000     -2.0395930000      1.1747220000
C                 -1.4260640000     -1.9955420000     -0.2562120000
C                 -0.7915620000     -1.0231180000     -1.0146200000
C                 -0.0019150000      0.0316830000     -0.4331670000
C                  0.0721090000     -0.0132240000      1.0066600000
C                 -0.5616030000     -0.9844080000      1.7672830000
O                 -1.9369760000     -2.9349330000      1.8980760000
O                  0.5878890000      0.9316750000     -1.1362320000
C                 -0.5009940000     -1.0498220000      3.2679650000
O                  0.2804940000      0.0330320000      3.8227810000
C                  0.4115210000      0.1218400000      5.1616870000
C                 -0.1676580000     -0.7590630000      6.0899210000
C                  1.1948540000      1.1890300000      5.6398440000
C                  1.3903780000      1.3686530000      7.0028460000
C                  0.0443600000     -0.5657210000      7.4580300000
C                  0.8175910000      0.4910660000      7.9288040000
H                 -2.0162980000     -2.7747020000     -0.7376240000
H                 -0.8753600000     -1.0296760000     -2.1008560000
H                  0.6590860000      0.7597360000      1.4932390000
H                 -0.0670660000     -2.0051130000      3.5910200000
H                 -1.5156800000     -1.0122770000      3.6870880000
H                 -0.7778650000     -1.5847620000      5.7503070000
H                  1.6355750000      1.8617420000      4.9124650000
H                  1.9961100000      2.2015970000      7.3525400000
H                 -0.4097890000     -1.2562320000      8.1647020000
H                  0.9725380000      0.6334220000      8.9950000000
$end
$rem
MAX_SCF_CYCLES=200
BASIS  =  6-311++G(d,p)
GUI  =  2
JOB_TYPE  =  SP
METHOD  =  B3LYP
SOLVENT_METHOD = COSMO
$end
$solvent
dielectric 37.219
opticaldielectric 1.43
$end

--------------------------------------------------------------

             Standard Nuclear Orientation (Angstroms)
    I     Atom           X                Y                Z
 ----------------------------------------------------------------
    1      C       2.3608247348    -1.4549406730     0.0013804897
    2      C       3.7499978753    -1.1017447505    -0.0125163490
    3      C       4.1950139662     0.2117744201    -0.0159783830
    4      C       3.3013721582     1.3411732477    -0.0060923996
    5      C       1.9034387200     0.9860047825     0.0092518090
    6      C       1.4559164449    -0.3266450677     0.0125370719
    7      O       1.9266682891    -2.6700672427     0.0041296662
    8      O       3.7138815439     2.5585432197    -0.0071462779
    9      C       0.0052228092    -0.7207430147     0.0257162607
   10      O      -0.8661365749     0.4332567661     0.0141230320
   11      C      -2.2005961693     0.2413145911     0.0041227970
   12      C      -2.8361743177    -1.0112607674    -0.0082123855
   13      C      -2.9953877601     1.4029678370     0.0068181896
   14      C      -4.3810396041     1.3128425591    -0.0039014250
   15      C      -4.2322135811    -1.0826775237    -0.0135993472
   16      C      -5.0161740520     0.0669826257    -0.0128102550
   17      H       4.4615752837    -1.9268345495    -0.0229283360
   18      H       5.2619233437     0.4321232740    -0.0271373508
   19      H       1.1885590729     1.8030684351     0.0203135117
   20      H      -0.2173735062    -1.3271255308     0.9134043035
   21      H      -0.2210239169    -1.3507366778    -0.8452497536
   22      H      -2.2498190356    -1.9198906163    -0.0151673166
   23      H      -2.4918213200     2.3632780305     0.0158634681
   24      H      -4.9776068218     2.2222921493    -0.0052631309
   25      H      -4.7101454968    -2.0593793321    -0.0223590508
   26      H      -6.1007810131    -0.0009467259    -0.0206241481
 ----------------------------------------------------------------

   38    -727.2251645695      1.46e-06  Convergence criterion met
 Total energy in the final basis set =     -727.2251645695
    6    -727.5120241784      3.33e-06  Convergence criterion met
 Total energy in the final basis set =     -727.5120241784

                    Orbital Energies (a.u.)
 --------------------------------------------------------------

 Alpha MOs
 -- Occupied --
-19.1476 -19.0203 -19.0196 -10.2342 -10.2087 -10.1743 -10.1740 -10.1703
-10.1696 -10.1686 -10.1681 -10.1657 -10.1344 -10.1222 -10.1211 -10.1203
 -1.0640  -0.9384  -0.9354  -0.8517  -0.7872  -0.7542  -0.7459  -0.7173
 -0.6719  -0.6360  -0.6077  -0.5922  -0.5545  -0.5304  -0.5194  -0.4832
 -0.4685  -0.4632  -0.4408  -0.4300  -0.4225  -0.4182  -0.4055  -0.3844
 -0.3829  -0.3650  -0.3610  -0.3551  -0.3526  -0.3348  -0.3265  -0.3205
 -0.3149  -0.3109  -0.2577  -0.2314  -0.2236  -0.2154  -0.2020  -0.1985
 -0.1187

          Ground-State Mulliken Net Atomic Charges

     Atom                 Charge (a.u.)
  ----------------------------------------
      1 C                    -0.928259
      2 C                     0.036917
      3 C                    -0.058649
      4 C                    -0.380912
      5 C                    -0.436146
      6 C                     0.465285
      7 O                    -0.756066
      8 O                    -0.780969
      9 C                    -0.087738
     10 O                    -0.145295
     11 C                     0.391372
     12 C                     0.041374
     13 C                    -0.157801
     14 C                    -0.292026
     15 C                    -0.356560
     16 C                    -0.409527
     17 H                     0.142593
     18 H                     0.146449
     19 H                     0.137304
     20 H                     0.212308
     21 H                     0.205336
     22 H                     0.186876
     23 H                     0.194653
     24 H                     0.216947
     25 H                     0.227683
     26 H                     0.184850
  ----------------------------------------
  Sum of atomic charges =    -2.000000

                    Cartesian Multipole Moments
 -----------------------------------------------------------------
    Charge (ESU x 10^10)
                -9.6064
    Dipole Moment (Debye)
         X     -25.8591      Y      -1.4366      Z       0.0197
       Tot      25.8990
    Quadrupole Moments (Debye-Ang)
        XX    -183.6365     XY     -18.2262     YY    -153.4724
        XZ       0.1582     YZ       0.1577     ZZ    -106.0363

 Total job time:  118.25s(wall), 911.66s(cpu)
        *  Thank you very much for using Q-Chem.  Have a nice day.  *
