 Gaussian 16, Revision A.03,
 Gaussian 16:  ES64L-G16RevA.03 25-Dec-2016

 ----------------------------------------------------------------------
 #P UB3LYP/6-311++G(d,p) nosym opt freq SCRF=(PCM,Solvent=n,n-DiMethylF
 ormamide)
 ----------------------------------------------------------------------

 --------
 Oxidized
 --------
 Symbolic Z-matrix:
 Charge =  0 Multiplicity = 1

 SCF Done:  E(UB3LYP) =  -1109.85004282     A.U. after   16 cycles
 SCF Done:  E(UB3LYP) =  -1109.85023854     A.U. after   14 cycles
 SCF Done:  E(UB3LYP) =  -1109.85016228     A.U. after   13 cycles
 SCF Done:  E(UB3LYP) =  -1109.85025093     A.U. after   13 cycles
 SCF Done:  E(UB3LYP) =  -1109.85032659     A.U. after   13 cycles
 SCF Done:  E(UB3LYP) =  -1109.85033817     A.U. after   12 cycles
 SCF Done:  E(UB3LYP) =  -1109.85035011     A.U. after   12 cycles
 SCF Done:  E(UB3LYP) =  -1109.85035606     A.U. after   13 cycles
 SCF Done:  E(UB3LYP) =  -1109.85036036     A.U. after   13 cycles
 SCF Done:  E(UB3LYP) =  -1109.85032343     A.U. after   13 cycles
 SCF Done:  E(UB3LYP) =  -1109.85037007     A.U. after   13 cycles
 SCF Done:  E(UB3LYP) =  -1109.85033702     A.U. after   13 cycles
 SCF Done:  E(UB3LYP) =  -1109.85033412     A.U. after   11 cycles
 SCF Done:  E(UB3LYP) =  -1109.85033570     A.U. after   10 cycles
 SCF Done:  E(UB3LYP) =  -1109.85038411     A.U. after   12 cycles
 SCF Done:  E(UB3LYP) =  -1109.85038433     A.U. after   10 cycles
 SCF Done:  E(UB3LYP) =  -1109.85038458     A.U. after   10 cycles
 SCF Done:  E(UB3LYP) =  -1109.85038461     A.U. after    9 cycles
 SCF Done:  E(UB3LYP) =  -1109.85038460     A.U. after    9 cycles
 Optimization completed.
    -- Stationary point found.
 Normal termination of Gaussian 16 at Sat Feb 10 20:12:36 2024.

 ----------------------------------------------------------------------
 #P Geom=AllCheck Guess=TCheck SCRF=Check GenChk UB3LYP/6-311++G(d,p) F
 req
 ----------------------------------------------------------------------

 Structure from the checkpoint file:  "149.chk"
 --------
 Oxidized
 --------
 Charge =  0 Multiplicity = 1

                          Input orientation:
 ---------------------------------------------------------------------
 Center     Atomic      Atomic             Coordinates (Angstroms)
 Number     Number       Type             X           Y           Z
 ---------------------------------------------------------------------
      1          6           0       -3.534688    2.969787    1.596185
      2          6           0       -4.582330    2.108234    1.901962
      3          6           0       -4.526098    0.767279    1.510944
      4          6           0       -2.417793    2.504312    0.894278
      5          6           0       -2.363865    1.157472    0.501790
      6          6           0       -3.420721    0.294699    0.814384
      7          6           0       -1.310129    3.465541    0.588081
      8          6           0       -0.141461    2.955605   -0.179517
      9          6           0       -0.090353    1.594674   -0.572955
     10          6           0       -1.192536    0.639113   -0.243693
     11          6           0        0.946346    3.787405   -0.543144
     12          6           0        2.028669    3.266293   -1.260371
     13          6           0        2.049302    1.929196   -1.628935
     14          6           0        0.993170    1.091240   -1.288469
     15          8           0       -1.399752    4.623415    0.974837
     16          8           0       -1.127044   -0.535653   -0.584757
     17          1           0       -3.359489   -0.740511    0.503795
     18          1           0        0.994972    0.047003   -1.569465
     19          1           0       -3.567014    4.009453    1.894879
     20          8           0        0.916833    5.094329   -0.158348
     21          1           0        2.896084    1.542188   -2.183231
     22          1           0       -5.343105    0.096925    1.750431
     23          6           0        1.886213    5.984807   -0.606924
     24          6           0        1.765785    6.563187   -1.878527
     25          6           0        2.910849    6.361861    0.253629
     26          6           0        3.845020    7.311853   -0.157581
     27          6           0        2.709131    7.507470   -2.281873
     28          6           0        3.746353    7.879251   -1.427402
     29          8           0        0.779067    6.164665   -2.746806
     30          6           0       -0.536828    6.684179   -2.465292
     31          1           0       -5.443987    2.478495    2.445067
     32          1           0        2.853398    3.914752   -1.523572
     33          1           0        2.968021    5.903429    1.233797
     34          1           0        4.645213    7.603205    0.512124
     35          1           0        2.614459    7.942123   -3.270182
     36          1           0        4.472031    8.615080   -1.753307
     37          1           0       -1.192174    6.277945   -3.233976
     38          1           0       -0.532522    7.776294   -2.525035
     39          1           0       -0.879039    6.363972   -1.479176
 ---------------------------------------------------------------------

 SCF Done:  E(UB3LYP) =  -1109.85038460     A.U. after    1 cycles

 Alpha  occ. eigenvalues --  -19.18499 -19.15374 -19.13113 -19.12602 -10.28392
 Alpha  occ. eigenvalues --  -10.28382 -10.27401 -10.25022 -10.24598 -10.22080
 Alpha  occ. eigenvalues --  -10.21449 -10.21334 -10.20908 -10.20793 -10.20287
 Alpha  occ. eigenvalues --  -10.19921 -10.19906 -10.19856 -10.19799 -10.19691
 Alpha  occ. eigenvalues --  -10.19401 -10.19173 -10.18876 -10.18830 -10.18789
 Alpha  occ. eigenvalues --   -1.10984  -1.06521  -1.06432  -1.05938  -0.89613
 Alpha  occ. eigenvalues --   -0.88479  -0.87035  -0.81485  -0.79273  -0.77835
 Alpha  occ. eigenvalues --   -0.77397  -0.76876  -0.75251  -0.70090  -0.69215
 Alpha  occ. eigenvalues --   -0.67441  -0.65174  -0.64350  -0.62660  -0.60610
 Alpha  occ. eigenvalues --   -0.58643  -0.57209  -0.56420  -0.53624  -0.52080
 Alpha  occ. eigenvalues --   -0.51279  -0.51032  -0.49862  -0.49016  -0.48646
 Alpha  occ. eigenvalues --   -0.47788  -0.47022  -0.45850  -0.45753  -0.45367
 Alpha  occ. eigenvalues --   -0.45146  -0.44960  -0.44486  -0.44165  -0.42612
 Alpha  occ. eigenvalues --   -0.41954  -0.41366  -0.40279  -0.39303  -0.39059
 Alpha  occ. eigenvalues --   -0.38271  -0.38042  -0.37740  -0.37024  -0.36859
 Alpha  occ. eigenvalues --   -0.35964  -0.34783  -0.29769  -0.29157  -0.28727
 Alpha  occ. eigenvalues --   -0.27894  -0.27866  -0.27536  -0.26665  -0.25735
 Alpha  occ. eigenvalues --   -0.25180
 Alpha virt. eigenvalues --   -0.11900  -0.07223  -0.04072  -0.02930  -0.02466
 Alpha virt. eigenvalues --   -0.02217  -0.00770  -0.00170   0.00466   0.00760
 Alpha virt. eigenvalues --    0.01208   0.01652   0.02410   0.02702   0.02979

  Beta  occ. eigenvalues --  -19.18499 -19.15374 -19.13113 -19.12602 -10.28392
  Beta  occ. eigenvalues --  -10.28382 -10.27401 -10.25022 -10.24598 -10.22080
  Beta  occ. eigenvalues --  -10.21449 -10.21334 -10.20908 -10.20793 -10.20287
  Beta  occ. eigenvalues --  -10.19921 -10.19906 -10.19856 -10.19799 -10.19691
  Beta  occ. eigenvalues --  -10.19401 -10.19173 -10.18876 -10.18830 -10.18789
  Beta  occ. eigenvalues --   -1.10984  -1.06521  -1.06432  -1.05938  -0.89613
  Beta  occ. eigenvalues --   -0.88479  -0.87035  -0.81485  -0.79273  -0.77835
  Beta  occ. eigenvalues --   -0.77397  -0.76876  -0.75251  -0.70090  -0.69215
  Beta  occ. eigenvalues --   -0.67441  -0.65174  -0.64350  -0.62660  -0.60610
  Beta  occ. eigenvalues --   -0.58643  -0.57209  -0.56420  -0.53624  -0.52080
  Beta  occ. eigenvalues --   -0.51279  -0.51032  -0.49862  -0.49016  -0.48646
  Beta  occ. eigenvalues --   -0.47788  -0.47022  -0.45850  -0.45753  -0.45367
  Beta  occ. eigenvalues --   -0.45146  -0.44960  -0.44486  -0.44165  -0.42612
  Beta  occ. eigenvalues --   -0.41954  -0.41366  -0.40279  -0.39303  -0.39059
  Beta  occ. eigenvalues --   -0.38271  -0.38042  -0.37740  -0.37024  -0.36859
  Beta  occ. eigenvalues --   -0.35964  -0.34783  -0.29769  -0.29157  -0.28727
  Beta  occ. eigenvalues --   -0.27894  -0.27866  -0.27536  -0.26665  -0.25735
  Beta  occ. eigenvalues --   -0.25180
  Beta virt. eigenvalues --   -0.11900  -0.07223  -0.04072  -0.02930  -0.02466
  Beta virt. eigenvalues --   -0.02217  -0.00770  -0.00170   0.00466   0.00760
  Beta virt. eigenvalues --    0.01208   0.01652   0.02410   0.02702   0.02979

 Mulliken charges and spin densities:
               1          2
     1  C    0.208875  -0.000000
     2  C   -0.440580  -0.000000
     3  C   -0.457159  -0.000000
     4  C    0.117073  -0.000000
     5  C   -0.084978  -0.000000
     6  C    0.131017  -0.000000
     7  C   -0.168891   0.000000
     8  C    0.483888   0.000000
     9  C    0.458073   0.000000
    10  C   -0.654800   0.000000
    11  C   -0.276811  -0.000000
    12  C   -0.329715   0.000000
    13  C   -0.334398   0.000000
    14  C    0.055297   0.000000
    15  O   -0.254612   0.000000
    16  O   -0.269406   0.000000
    17  H    0.186006  -0.000000
    18  H    0.178975  -0.000000
    19  H    0.179229  -0.000000
    20  O    0.091212   0.000000
    21  H    0.233317  -0.000000
    22  H    0.205228   0.000000
    23  C    0.007648  -0.000000
    24  C   -0.480861   0.000000
    25  C    0.297786  -0.000000
    26  C   -0.260273   0.000000
    27  C    0.166703  -0.000000
    28  C   -0.350292   0.000000
    29  O   -0.136916  -0.000000
    30  C   -0.249732  -0.000000
    31  H    0.209682  -0.000000
    32  H    0.215325   0.000000
    33  H    0.200310  -0.000000
    34  H    0.211636  -0.000000
    35  H    0.223456  -0.000000
    36  H    0.195338   0.000000
    37  H    0.172928   0.000000
    38  H    0.142051  -0.000000
    39  H    0.178370   0.000000
 Sum of Mulliken charges =  -0.00000  -0.00000

 Dipole moment (field-independent basis, Debye):
    X=              0.8257    Y=              1.9740    Z=             -0.0521  Tot=              2.1403
 Quadrupole moment (field-independent basis, Debye-Ang):
   XX=           -111.0345   YY=           -131.1926   ZZ=           -141.1231
   XY=             13.3809   XZ=             -8.3869   YZ=             -9.6728

  Exact polarizability: 425.262  70.168 402.657 -75.906  10.393 280.493
 Approx polarizability: 459.275  57.742 478.755 -77.583  31.165 333.444

                      1                      2                      3
                      A                      A                      A
 Frequencies --     13.0387                21.9519                27.9900
 Red. masses --      6.0870                 5.9282                 6.7469
 Frc consts  --      0.0006                 0.0017                 0.0031
 IR Inten    --      3.4100                 0.5094                 7.3156

                      4                      5                      6
                      A                      A                      A
 Frequencies --     48.4818                63.0990                72.5488
 Red. masses --      5.7905                 5.4119                 2.8602
 Frc consts  --      0.0080                 0.0127                 0.0089
 IR Inten    --      2.3849                 1.4023                12.4258

                      7                      8                      9
                      A                      A                      A
 Frequencies --    105.3077               131.0765               147.2588
 Red. masses --      4.6863                 3.8585                 3.4565
 Frc consts  --      0.0306                 0.0391                 0.0442
 IR Inten    --      0.0350                 1.7856                 0.8210

                     10                     11                     12
                      A                      A                      A
 Frequencies --    154.7653               163.9619               195.7608
 Red. masses --      6.3228                 1.2816                 4.0385
 Frc consts  --      0.0892                 0.0203                 0.0912
 IR Inten    --      1.0359                 1.5470                 0.9779

                     13                     14                     15
                      A                      A                      A
 Frequencies --    225.9796               245.7011               259.9324
 Red. masses --      5.3623                 5.6966                 5.0440
 Frc consts  --      0.1613                 0.2026                 0.2008
 IR Inten    --      2.4258                 1.0119                 3.7672

                     16                     17                     18
                      A                      A                      A
 Frequencies --    321.6619               333.6946               356.5313
 Red. masses --      7.5485                 7.4182                 5.1521
 Frc consts  --      0.4602                 0.4867                 0.3859
 IR Inten    --      6.4246                 0.6814                 1.8535

                     19                     20                     21
                      A                      A                      A
 Frequencies --    369.4699               401.0542               422.7577
 Red. masses --      5.9331                12.3355                 3.3512
 Frc consts  --      0.4772                 1.1690                 0.3529
 IR Inten    --      3.0301                49.2228                 0.6297

                     22                     23                     24
                      A                      A                      A
 Frequencies --    430.1099               433.0962               464.5973
 Red. masses --      7.0797                 5.1385                 5.4962
 Frc consts  --      0.7717                 0.5679                 0.6990
 IR Inten    --      5.2513                 0.1291                 7.4425

                     25                     26                     27
                      A                      A                      A
 Frequencies --    476.7117               490.9780               502.8057
 Red. masses --      9.2805                 3.8847                 4.4030
 Frc consts  --      1.2426                 0.5517                 0.6558
 IR Inten    --      1.3313                 0.5916                 8.0444

                     28                     29                     30
                      A                      A                      A
 Frequencies --    542.9315               553.0822               592.9768
 Red. masses --      5.4024                 4.7728                 4.6127
 Frc consts  --      0.9383                 0.8602                 0.9556
 IR Inten    --      5.9830                 3.5188                 5.8268

                     31                     32                     33
                      A                      A                      A
 Frequencies --    600.1008               616.1527               644.1881
 Red. masses --      6.2542                 6.5898                 5.4030
 Frc consts  --      1.3270                 1.4740                 1.3210
 IR Inten    --      1.6929                 3.7115                 3.8501

                     34                     35                     36
                      A                      A                      A
 Frequencies --    668.1701               673.9525               701.2920
 Red. masses --      4.5481                 5.5528                 6.6110
 Frc consts  --      1.1963                 1.4860                 1.9156
 IR Inten    --      7.0192                16.7107                 5.1419

                     37                     38                     39
                      A                      A                      A
 Frequencies --    720.8597               741.5992               743.0106
 Red. masses --      2.8028                 3.8088                 2.7826
 Frc consts  --      0.8581                 1.2342                 0.9051
 IR Inten    --     70.7067                42.6309                42.7090

                     40                     41                     42
                      A                      A                      A
 Frequencies --    774.6370               789.5191               791.1911
 Red. masses --      1.4858                 1.8444                 4.4902
 Frc consts  --      0.5253                 0.6774                 1.6561
 IR Inten    --     85.6333                18.2761                29.1085

                     43                     44                     45
                      A                      A                      A
 Frequencies --    792.3983               815.8644               833.3425
 Red. masses --      3.0913                 2.6357                 2.8148
 Frc consts  --      1.1436                 1.0337                 1.1517
 IR Inten    --      6.7481                12.7830                25.5777

                     46                     47                     48
                      A                      A                      A
 Frequencies --    838.3277               886.8164               901.4931
 Red. masses --      4.7584                 1.8061                 6.2496
 Frc consts  --      1.9703                 0.8369                 2.9924
 IR Inten    --     35.9489                24.6479               216.8859

                     49                     50                     51
                      A                      A                      A
 Frequencies --    913.4270               926.2293               935.3197
 Red. masses --      1.4157                 6.5421                 1.4238
 Frc consts  --      0.6959                 3.3068                 0.7339
 IR Inten    --      0.1203                 3.0600                 0.0134

                     52                     53                     54
                      A                      A                      A
 Frequencies --    965.2096              1000.6153              1001.9758
 Red. masses --      1.4029                 1.3345                 1.3831
 Frc consts  --      0.7701                 0.7873                 0.8181
 IR Inten    --      3.0838                 2.1068                 1.7046

                     55                     56                     57
                      A                      A                      A
 Frequencies --   1006.7519              1010.7069              1023.1335
 Red. masses --      7.1904                 1.3293                 1.3306
 Frc consts  --      4.2939                 0.8001                 0.8206
 IR Inten    --     90.1035                 0.6099                 0.0221

                     58                     59                     60
                      A                      A                      A
 Frequencies --   1024.7508              1050.4801              1058.7046
 Red. masses --      5.9524                 1.9946                 2.0360
 Frc consts  --      3.6828                 1.2968                 1.3445
 IR Inten    --    110.7858                27.1555                 4.7817

                     61                     62                     63
                      A                      A                      A
 Frequencies --   1102.7404              1112.2263              1116.4651
 Red. masses --      2.1471                 2.3136                 1.9258
 Frc consts  --      1.5383                 1.6862                 1.4144
 IR Inten    --     16.6461                 1.4562                75.8924

                     64                     65                     66
                      A                      A                      A
 Frequencies --   1168.2366              1170.9551              1171.2241
 Red. masses --      1.2494                 1.6349                 1.1654
 Frc consts  --      1.0047                 1.3207                 0.9419
 IR Inten    --      4.9271                 2.6741                 4.9188

                     67                     68                     69
                      A                      A                      A
 Frequencies --   1180.6140              1186.2118              1192.5302
 Red. masses --      1.3780                 1.6918                 1.2607
 Frc consts  --      1.1317                 1.4026                 1.0564
 IR Inten    --     49.1743                93.3767                14.2464

                     70                     71                     72
                      A                      A                      A
 Frequencies --   1205.4636              1215.1063              1254.8559
 Red. masses --      2.0404                 1.9127                 3.3477
 Frc consts  --      1.7469                 1.6639                 3.1059
 IR Inten    --      8.4913               179.3309               209.2056

                     73                     74                     75
                      A                      A                      A
 Frequencies --   1255.1491              1270.8164              1282.9378
 Red. masses --      2.5134                 2.9989                 2.3987
 Frc consts  --      2.3329                 2.8535                 2.3261
 IR Inten    --    381.5237              1169.8707               138.1217

                     76                     77                     78
                      A                      A                      A
 Frequencies --   1284.8743              1314.9830              1323.4807
 Red. masses --      2.2000                 8.1322                 3.0177
 Frc consts  --      2.1399                 8.2851                 3.1143
 IR Inten    --    178.9025                 2.6323               276.2409

                     79                     80                     81
                      A                      A                      A
 Frequencies --   1353.2789              1361.2284              1458.5416
 Red. masses --      8.6610                 8.4618                 2.9457
 Frc consts  --      9.3453                 9.2380                 3.6921
 IR Inten    --    101.5202                 4.1428               121.3869

                     82                     83                     84
                      A                      A                      A
 Frequencies --   1463.5927              1475.5145              1481.0689
 Red. masses --      1.3948                 2.3279                 1.1346
 Frc consts  --      1.7604                 2.9860                 1.4663
 IR Inten    --     46.1747                21.1228                23.7432

                     85                     86                     87
                      A                      A                      A
 Frequencies --   1481.2847              1485.6138              1497.1931
 Red. masses --      2.0479                 2.0591                 1.0544
 Frc consts  --      2.6474                 2.6776                 1.3926
 IR Inten    --     37.7721                 9.2046                20.6794

                     88                     89                     90
                      A                      A                      A
 Frequencies --   1506.1842              1514.8136              1598.6640
 Red. masses --      2.6193                 2.5859                 6.1503
 Frc consts  --      3.5010                 3.4961                 9.2610
 IR Inten    --      3.0139               210.8026                53.1276

                     91                     92                     93
                      A                      A                      A
 Frequencies --   1610.6750              1614.4708              1617.5020
 Red. masses --      6.1221                 7.0351                 6.8062
 Frc consts  --      9.3577                10.8039                10.4917
 IR Inten    --    434.9284                42.7539                99.4852

                     94                     95                     96
                      A                      A                      A
 Frequencies --   1623.8842              1632.7404              1690.0112
 Red. masses --      5.8468                 6.3083                11.9654
 Frc consts  --      9.0841                 9.9082                20.1352
 IR Inten    --     40.5278                14.0866                42.3477

                     97                     98                     99
                      A                      A                      A
 Frequencies --   1698.3397              3024.1946              3098.2494
 Red. masses --     11.7593                 1.0325                 1.1048
 Frc consts  --     19.9840                 5.5636                 6.2486
 IR Inten    --    760.0658                74.4074                33.2617

                    100                    101                    102
                      A                      A                      A
 Frequencies --   3139.2766              3175.2808              3178.0441
 Red. masses --      1.1042                 1.0864                 1.0875
 Frc consts  --      6.4118                 6.4535                 6.4716
 IR Inten    --     27.4830                 0.4812                 3.6239

                    103                    104                    105
                      A                      A                      A
 Frequencies --   3184.4408              3185.8684              3190.7856
 Red. masses --      1.0898                 1.0892                 1.0918
 Frc consts  --      6.5110                 6.5137                 6.5490
 IR Inten    --     10.4977                10.4422                12.6857

                    106                    107                    108
                      A                      A                      A
 Frequencies --   3191.6114              3199.4782              3204.2006
 Red. masses --      1.0939                 1.0979                 1.0932
 Frc consts  --      6.5651                 6.6217                 6.6131
 IR Inten    --     15.6316                10.9593                 7.2267

                    109                    110                    111
                      A                      A                      A
 Frequencies --   3208.3909              3209.4387              3214.7644
 Red. masses --      1.0941                 1.0915                 1.0940
 Frc consts  --      6.6354                 6.6244                 6.6617
 IR Inten    --     16.7384                 0.4539                 5.8174

 - Thermochemistry -
 -------------------
 Temperature   298.150 Kelvin.  Pressure   1.00000 Atm.
 Atom     1 has atomic number  6 and mass  12.00000

 Molecular mass:   330.08921 amu.
 Principal axes and moments of inertia in atomic units:
                           1         2         3
     Eigenvalues --  3632.16789********************
           X            0.66746  -0.60376   0.43586
           Y            0.69483   0.71546  -0.07298
           Z           -0.26778   0.35156   0.89705
 This molecule is an asymmetric top.
 Rotational symmetry number  1.
 Warning -- assumption of classical behavior for rotation
           may cause significant error
 Rotational temperatures (Kelvin)      0.02385     0.00625     0.00554
 Rotational constants (GHZ):           0.49688     0.13018     0.11548
 Zero-point vibrational energy     773966.1 (Joules/Mol)
                                  184.98234 (Kcal/Mol)
 Warning -- explicit consideration of  32 degrees of freedom as
           vibrations may cause significant error
 Vibrational temperatures:     18.76    31.58    40.27    69.75    90.79
          (Kelvin)            104.38   151.51   188.59   211.87   222.67
                              235.90   281.66   325.13   353.51   373.98
                              462.80   480.11   512.97   531.58   577.03
                              608.25   618.83   623.13   668.45   685.88
                              706.41   723.43   781.16   795.76   853.16
                              863.41   886.51   926.84   961.35   969.67
                             1009.00  1037.16  1067.00  1069.03  1114.53
                             1135.94  1138.35  1140.08  1173.85  1198.99
                             1206.17  1275.93  1297.05  1314.22  1332.64
                             1345.72  1388.72  1439.66  1441.62  1448.49
                             1454.18  1472.06  1474.39  1511.41  1523.24
                             1586.60  1600.25  1606.34  1680.83  1684.74
                             1685.13  1698.64  1706.69  1715.78  1734.39
                             1748.27  1805.46  1805.88  1828.42  1845.86
                             1848.65  1891.97  1904.19  1947.07  1958.50
                             2098.52  2105.78  2122.94  2130.93  2131.24
                             2137.47  2154.13  2167.06  2179.48  2300.12
                             2317.40  2322.86  2327.22  2336.41  2349.15
                             2431.55  2443.53  4351.14  4457.69  4516.72
                             4568.52  4572.50  4581.70  4583.75  4590.83
                             4592.02  4603.34  4610.13  4616.16  4617.67
                             4625.33

 Zero-point correction=                           0.294788 (Hartree/Particle)
 Thermal correction to Energy=                    0.314826
 Thermal correction to Enthalpy=                  0.315770
 Thermal correction to Gibbs Free Energy=         0.243227
 Sum of electronic and zero-point Energies=          -1109.555596
 Sum of electronic and thermal Energies=             -1109.535559
 Sum of electronic and thermal Enthalpies=           -1109.534615
 Sum of electronic and thermal Free Energies=        -1109.607158

                     E (Thermal)             CV                S
                      KCal/Mol        Cal/Mol-Kelvin    Cal/Mol-Kelvin
 Total                  197.556             78.043            152.680
 Electronic               0.000              0.000              0.000
 Translational            0.889              2.981             43.278
 Rotational               0.889              2.981             35.019
 Vibrational            195.779             72.082             74.383
 Vibration     1          0.593              1.987              7.484
 Vibration     2          0.593              1.985              6.449
 Vibration     3          0.593              1.984              5.967
 Vibration     4          0.595              1.978              4.878
 Vibration     5          0.597              1.972              4.358
 Vibration     6          0.599              1.967              4.083
 Vibration     7          0.605              1.945              3.354
 Vibration     8          0.612              1.922              2.930
 Vibration     9          0.617              1.906              2.707
 Vibration    10          0.620              1.897              2.613
 Vibration    11          0.623              1.887              2.504
 Vibration    12          0.636              1.846              2.173
 Vibration    13          0.650              1.801              1.911
 Vibration    14          0.660              1.770              1.761
 Vibration    15          0.668              1.746              1.662
 Vibration    16          0.707              1.632              1.302
 Vibration    17          0.715              1.608              1.242
 Vibration    18          0.732              1.562              1.137
 Vibration    19          0.742              1.535              1.082
 Vibration    20          0.767              1.468              0.959
 Vibration    21          0.785              1.421              0.883
 Vibration    22          0.791              1.405              0.858
 Vibration    23          0.794              1.398              0.849
 Vibration    24          0.822              1.329              0.753
 Vibration    25          0.833              1.302              0.719
 Vibration    26          0.847              1.270              0.681
 Vibration    27          0.858              1.244              0.651
 Vibration    28          0.898              1.155              0.559
 Vibration    29          0.908              1.133              0.538
 Vibration    30          0.951              1.047              0.462
 Vibration    31          0.958              1.032              0.449
 Vibration    32          0.976              0.998              0.423

                           ! Non-Optimized Parameters !
 Normal termination of Gaussian 16 at Sat Feb 10 23:19:14 2024.
