 Gaussian 16, Revision A.03,
 Gaussian 16:  ES64L-G16RevA.03 25-Dec-2016

 ----------------------------------------------------------------
 #P UB3LYP/6-311++G(d,p) SCRF=(PCM,Solvent=n,n-DiMethylFormamide)
 ----------------------------------------------------------------

 ------------------
 Radical PCM in DMF
 ------------------
 Symbolic Z-matrix:
 Charge = -1 Multiplicity = 2

                         Standard orientation:
 ---------------------------------------------------------------------
 Center     Atomic      Atomic             Coordinates (Angstroms)
 Number     Number       Type             X           Y           Z
 ---------------------------------------------------------------------
      1          6           0       -4.327966    0.694375   -0.032696
      2          6           0       -2.835648    0.924396   -0.009956
      3          6           0       -2.315122    2.240163   -0.010398
      4          6           0       -0.957033    2.468898   -0.000966
      5          6           0       -0.033597    1.406350    0.001362
      6          6           0        1.397699    1.718781    0.009430
      7          8           0        1.813111    2.902321    0.018915
      8          6           0        2.309019    0.574038    0.004462
      9          6           0        3.702755    0.799342    0.017847
     10          6           0        4.595101   -0.253722    0.009609
     11          6           0        4.116214   -1.581734   -0.014012
     12          6           0        2.757673   -1.825259   -0.028597
     13          6           0        1.826504   -0.763502   -0.018456
     14          6           0        0.396130   -1.078744   -0.035263
     15          8           0       -0.024021   -2.257961   -0.081130
     16          6           0       -0.516318    0.061223   -0.003984
     17          6           0       -1.919866   -0.113311    0.000553
     18          7           0       -2.519728   -1.479463    0.041782
     19          8           0       -2.709115   -1.976848    1.142588
     20          8           0       -2.917853   -1.949216   -1.015811
     21          1           0       -4.855930    1.623125    0.193800
     22          1           0       -4.636341   -0.057049    0.699122
     23          1           0       -4.661185    0.345820   -1.015427
     24          1           0       -3.010067    3.074317   -0.011523
     25          1           0       -0.553804    3.474700    0.004641
     26          1           0        4.040797    1.828977    0.034383
     27          1           0        5.663994   -0.062937    0.020793
     28          1           0        4.817626   -2.410590   -0.020682
     29          1           0        2.362751   -2.834256   -0.047690
 ---------------------------------------------------------------------

 SCF Done:  E(UB3LYP) =  -932.982041630     A.U. after   23 cycles

 The electronic state is 2-A.
 Alpha  occ. eigenvalues --  -19.17232 -19.17224 -19.08379 -19.08271 -14.56118
 Alpha  occ. eigenvalues --  -10.23413 -10.23337 -10.23213 -10.20524 -10.19552
 Alpha  occ. eigenvalues --  -10.18401 -10.18281 -10.18101 -10.17906 -10.17783
 Alpha  occ. eigenvalues --  -10.17677 -10.17617 -10.17504 -10.17390 -10.17362
 Alpha  occ. eigenvalues --   -1.24680  -1.07363  -1.01465  -1.00964  -0.88860
 Alpha  occ. eigenvalues --   -0.86121  -0.81237  -0.79659  -0.76302  -0.75517
 Alpha  occ. eigenvalues --   -0.71927  -0.69873  -0.66195  -0.63757  -0.62456
 Alpha  occ. eigenvalues --   -0.59153  -0.57286  -0.56351  -0.53409  -0.53255
 Alpha  occ. eigenvalues --   -0.52839  -0.51201  -0.48009  -0.47035  -0.45895
 Alpha  occ. eigenvalues --   -0.45348  -0.43913  -0.42835  -0.42538  -0.42415
 Alpha  occ. eigenvalues --   -0.41991  -0.40887  -0.39369  -0.38971  -0.38396
 Alpha  occ. eigenvalues --   -0.37322  -0.37186  -0.35541  -0.34665  -0.34313
 Alpha  occ. eigenvalues --   -0.33080  -0.32296  -0.31975  -0.27505  -0.26567
 Alpha  occ. eigenvalues --   -0.26070  -0.25458  -0.25410  -0.24549  -0.14887
 Alpha virt. eigenvalues --   -0.08832  -0.06317  -0.02933  -0.01326  -0.00308
 Alpha virt. eigenvalues --    0.00356   0.01288   0.02036   0.02347   0.03246
 Alpha virt. eigenvalues --    0.04106   0.04252   0.04437   0.04563   0.05327

  Beta  occ. eigenvalues --  -19.17227 -19.17223 -19.07795 -19.07732 -14.56118
  Beta  occ. eigenvalues --  -10.23380 -10.23154 -10.23060 -10.20497 -10.19456
  Beta  occ. eigenvalues --  -10.18301 -10.18212 -10.18116 -10.17850 -10.17711
  Beta  occ. eigenvalues --  -10.17641 -10.17571 -10.17505 -10.17390 -10.17350
  Beta  occ. eigenvalues --   -1.24673  -1.07356  -1.00458  -1.00008  -0.88671
  Beta  occ. eigenvalues --   -0.85941  -0.80978  -0.79448  -0.76134  -0.75313
  Beta  occ. eigenvalues --   -0.71788  -0.69476  -0.65742  -0.63571  -0.62247
  Beta  occ. eigenvalues --   -0.59112  -0.57143  -0.56207  -0.53284  -0.53232
  Beta  occ. eigenvalues --   -0.52662  -0.51028  -0.47802  -0.46881  -0.45749
  Beta  occ. eigenvalues --   -0.45277  -0.43491  -0.42782  -0.42416  -0.41426
  Beta  occ. eigenvalues --   -0.41374  -0.40677  -0.39270  -0.38285  -0.37231
  Beta  occ. eigenvalues --   -0.36998  -0.36605  -0.35407  -0.34210  -0.33694
  Beta  occ. eigenvalues --   -0.32904  -0.32040  -0.31929  -0.26278  -0.25372
  Beta  occ. eigenvalues --   -0.25153  -0.24938  -0.24887  -0.24034
  Beta virt. eigenvalues --   -0.09007  -0.08752  -0.05399  -0.01887  -0.01070
  Beta virt. eigenvalues --   -0.00294   0.00355   0.01295   0.02044   0.02357
  Beta virt. eigenvalues --    0.03395   0.04124   0.04264   0.04577   0.04800

 Mulliken charges and spin densities:
               1          2
     1  C   -0.501336   0.000826
     2  C    0.778568   0.019816
     3  C   -0.955766   0.057433
     4  C   -0.169323  -0.000941
     5  C    0.573866   0.050872
     6  C   -0.602974   0.085772
     7  O   -0.434936   0.199949
     8  C    0.120746   0.025091
     9  C    0.096369   0.024700
    10  C   -0.404217   0.038713
    11  C   -0.438408   0.025538
    12  C    0.089034   0.039773
    13  C    0.112516   0.026190
    14  C   -0.593022   0.095166
    15  O   -0.398323   0.219560
    16  C    0.055245   0.061704
    17  C    0.277774   0.043562
    18  N   -0.197894  -0.003796
    19  O   -0.010693   0.000063
    20  O   -0.009317   0.002232
    21  H    0.177609   0.000141
    22  H    0.178859   0.000312
    23  H    0.204468   0.000934
    24  H    0.173250  -0.004523
    25  H    0.170894  -0.000483
    26  H    0.167040  -0.001225
    27  H    0.185737  -0.003026
    28  H    0.187137  -0.002287
    29  H    0.167096  -0.002066
 Sum of Mulliken charges =  -1.00000   1.00000

 Dipole moment (field-independent basis, Debye):
    X=             -1.3831    Y=              3.0434    Z=             -0.0237  Tot=              3.3430
 Quadrupole moment (field-independent basis, Debye-Ang):
   XX=           -121.1129   YY=           -150.9401   ZZ=           -124.6643
   XY=            -28.2515   XZ=              0.0164   YZ=             -0.1982

 Normal termination of Gaussian 16 at Sun Jan 14 01:20:03 2024.
