 Gaussian 16, Revision A.03,
 Gaussian 16:  ES64L-G16RevA.03 25-Dec-2016

 ----------------------------------------------------------------
 #P UB3LYP/6-311++G(d,p) SCRF=(PCM,Solvent=n,n-DiMethylFormamide)
 ----------------------------------------------------------------

 -------
 Reduced
 -------
 Symbolic Z-matrix:
 Charge = -2 Multiplicity = 1

                         Standard orientation:
 ---------------------------------------------------------------------
 Center     Atomic      Atomic             Coordinates (Angstroms)
 Number     Number       Type             X           Y           Z
 ---------------------------------------------------------------------
      1          6           0        2.743651    2.540556    0.864432
      2          8           0        2.414559    1.697546   -0.230122
      3          6           0        1.192776    1.044096   -0.089913
      4          6           0        1.170361   -0.356126   -0.078020
      5         35           0        2.876561   -1.308979   -0.178355
      6          6           0        0.000109   -1.189339   -0.000072
      7          8           0        0.000209   -2.463284   -0.000071
      8          6           0       -1.170272   -0.356319    0.078022
      9          6           0       -1.192949    1.043918    0.089373
     10          8           0       -2.414830    1.697083    0.230182
     11          6           0       -2.744349    2.541123   -0.863437
     12          6           0       -0.000154    1.830217   -0.000364
     13          8           0       -0.000189    3.134539   -0.000445
     14         35           0       -2.876290   -1.309486    0.178348
     15          1           0        2.912419    1.944600    1.775622
     16          1           0        3.678673    3.047936    0.597211
     17          1           0        1.945619    3.271351    1.029340
     18          1           0       -3.679054    3.048542   -0.595175
     19          1           0       -1.946311    3.271946   -1.028173
     20          1           0       -2.913868    1.946074   -1.775086
 ---------------------------------------------------------------------

 SCF Done:  E(UB3LYP) =  -5758.03120605     A.U. after   16 cycles

 The electronic state is 1-A.
 Alpha  occ. eigenvalues -- -482.80502-482.80502 -62.45772 -62.45772 -56.27783
 Alpha  occ. eigenvalues --  -56.27783 -56.27445 -56.27445 -56.27416 -56.27416
 Alpha  occ. eigenvalues --  -19.12108 -19.12107 -19.02889 -19.02090 -10.19811
 Alpha  occ. eigenvalues --  -10.19483 -10.19482 -10.19307 -10.19306 -10.18461
 Alpha  occ. eigenvalues --  -10.18460 -10.18132  -8.66723  -8.66723  -6.49772
 Alpha  occ. eigenvalues --   -6.49772  -6.48652  -6.48652  -6.48564  -6.48564
 Alpha  occ. eigenvalues --   -2.60881  -2.60880  -2.60576  -2.60576  -2.60509
 Alpha  occ. eigenvalues --   -2.60509  -2.59618  -2.59618  -2.59617  -2.59617
 Alpha  occ. eigenvalues --   -1.03511  -1.03168  -0.95317  -0.92848  -0.81371
 Alpha  occ. eigenvalues --   -0.78450  -0.74738  -0.70845  -0.68598  -0.64438
 Alpha  occ. eigenvalues --   -0.63842  -0.55365  -0.54540  -0.48829  -0.48660
 Alpha  occ. eigenvalues --   -0.45188  -0.44547  -0.43791  -0.42568  -0.40752
 Alpha  occ. eigenvalues --   -0.40594  -0.37560  -0.37435  -0.34838  -0.34690
 Alpha  occ. eigenvalues --   -0.33755  -0.33341  -0.32018  -0.30338  -0.28072
 Alpha  occ. eigenvalues --   -0.28065  -0.27152  -0.26548  -0.25839  -0.22915
 Alpha  occ. eigenvalues --   -0.21043  -0.20084  -0.19779  -0.13000
 Alpha virt. eigenvalues --   -0.01794   0.00447   0.00794   0.01747   0.01833
 Alpha virt. eigenvalues --    0.02324   0.03075   0.03862   0.04123   0.04679
 Alpha virt. eigenvalues --    0.04685   0.05287   0.06556   0.06560   0.06702

  Beta  occ. eigenvalues -- -482.80502-482.80502 -62.45772 -62.45772 -56.27783
  Beta  occ. eigenvalues --  -56.27783 -56.27445 -56.27445 -56.27416 -56.27416
  Beta  occ. eigenvalues --  -19.12108 -19.12107 -19.02889 -19.02090 -10.19811
  Beta  occ. eigenvalues --  -10.19483 -10.19482 -10.19307 -10.19306 -10.18461
  Beta  occ. eigenvalues --  -10.18460 -10.18132  -8.66723  -8.66723  -6.49772
  Beta  occ. eigenvalues --   -6.49772  -6.48652  -6.48652  -6.48564  -6.48564
  Beta  occ. eigenvalues --   -2.60881  -2.60880  -2.60576  -2.60576  -2.60509
  Beta  occ. eigenvalues --   -2.60509  -2.59618  -2.59618  -2.59617  -2.59617
  Beta  occ. eigenvalues --   -1.03511  -1.03168  -0.95317  -0.92848  -0.81371
  Beta  occ. eigenvalues --   -0.78450  -0.74738  -0.70845  -0.68598  -0.64438
  Beta  occ. eigenvalues --   -0.63842  -0.55365  -0.54540  -0.48829  -0.48660
  Beta  occ. eigenvalues --   -0.45188  -0.44547  -0.43791  -0.42568  -0.40752
  Beta  occ. eigenvalues --   -0.40594  -0.37560  -0.37435  -0.34838  -0.34690
  Beta  occ. eigenvalues --   -0.33755  -0.33341  -0.32018  -0.30338  -0.28072
  Beta  occ. eigenvalues --   -0.28065  -0.27152  -0.26548  -0.25839  -0.22915
  Beta  occ. eigenvalues --   -0.21043  -0.20084  -0.19779  -0.13000
  Beta virt. eigenvalues --   -0.01794   0.00447   0.00794   0.01747   0.01833
  Beta virt. eigenvalues --    0.02324   0.03075   0.03862   0.04123   0.04679
  Beta virt. eigenvalues --    0.04685   0.05287   0.06556   0.06560   0.06702

 Mulliken charges and spin densities:
               1          2
     1  C   -0.266470  -0.000000
     2  O   -0.196410   0.000000
     3  C   -0.407619  -0.000000
     4  C    0.887013   0.000000
     5  Br  -0.175929   0.000000
     6  C   -0.677019   0.000000
     7  O   -0.588611  -0.000000
     8  C    0.886218   0.000000
     9  C   -0.408119  -0.000000
    10  O   -0.196457   0.000000
    11  C   -0.266414   0.000000
    12  C   -0.607970  -0.000000
    13  O   -0.668594  -0.000000
    14  Br  -0.176016  -0.000000
    15  H    0.111367  -0.000000
    16  H    0.142430  -0.000000
    17  H    0.177384   0.000000
    18  H    0.142396   0.000000
    19  H    0.177438  -0.000000
    20  H    0.111381   0.000000
 Sum of Mulliken charges =  -2.00000   0.00000

 Dipole moment (field-independent basis, Debye):
    X=             -0.0006    Y=              0.7633    Z=              0.0027  Tot=              0.7633
 Quadrupole moment (field-independent basis, Debye-Ang):
   XX=           -138.9333   YY=           -170.3465   ZZ=           -114.9089
   XY=             -0.0022   XZ=              8.4044   YZ=              0.0074

 Normal termination of Gaussian 16 at Sun Jan 21 07:37:45 2024.
