 Q-Chem 5.4, Q-Chem, Inc., Pleasanton, CA (2021)
 Q-Chem 5.4.0 for Intel X86 EM64T Linux

User input:
--------------------------------------------------------------
$molecule
-1 2
C                 -0.9988090000     -1.6238980000      3.6131270000
C                  0.3025120000     -1.9557590000      3.1140990000
C                  0.8465520000     -1.4570710000      1.9482580000
C                  0.0470320000     -0.5219400000      1.1468310000
C                 -1.2739500000     -0.1954790000      1.6336960000
C                 -1.8032470000     -0.7050930000      2.7957360000
O                 -1.4640470000     -2.0728510000      4.7088650000
O                  0.4697710000     -0.0105540000      0.0659480000
N                 -3.0707670000     -0.4830870000      3.3246790000
C                 -3.9059650000      0.7130300000      3.1695320000
C                 -5.0069570000      0.6075660000      4.2398550000
C                 -4.5808920000      0.7323510000      1.7813420000
C                 -3.1088680000      2.0170270000      3.3956020000
C                  2.2557830000     -1.8482650000      1.4706530000
C                  2.9488480000     -2.8356660000      2.4292490000
C                  2.1707280000     -2.5241320000      0.0798720000
C                  3.1469470000     -0.5857480000      1.3701800000
H                  0.8558940000     -2.6422210000      3.7443100000
H                 -1.8278640000      0.4829630000      0.9968770000
H                 -3.0991300000     -0.9147560000      4.2463290000
H                 -4.5720440000      0.6035310000      5.2443060000
H                 -5.5783370000     -0.3164350000      4.1110140000
H                 -5.6961190000      1.4540710000      4.1699740000
H                 -5.1454280000     -0.1915470000      1.6302180000
H                 -3.8502540000      0.8126480000      0.9764780000
H                 -5.2685950000      1.5815950000      1.7009050000
H                 -2.6872900000      2.0301300000      4.4048590000
H                 -3.7562100000      2.8931730000      3.2783230000
H                 -2.2823280000      2.1016230000      2.6886060000
H                  3.0755000000     -2.4114450000      3.4297260000
H                  3.9438300000     -3.0806100000      2.0410040000
H                  2.3883200000     -3.7701250000      2.5266790000
H                  1.5744670000     -3.4409550000      0.1376330000
H                  3.1740510000     -2.7931840000     -0.2756590000
H                  1.7053360000     -1.8498730000     -0.6386700000
H                  3.2501360000     -0.1130540000      2.3527480000
H                  2.7044070000      0.1335380000      0.6815020000
H                  4.1506440000     -0.8542890000      1.0153330000
$end
$rem
MAX_SCF_CYCLES=200
BASIS  =  6-311++G(d,p)
GUI  =  2
JOB_TYPE  =  SP
METHOD  =  B3LYP
SOLVENT_METHOD = PCM
$end
$pcm
theory = CPCM
$end
$solvent
dielectric 37.219
opticaldielectric 1.43
$end

--------------------------------------------------------------

             Standard Nuclear Orientation (Angstroms)
    I     Atom           X                Y                Z
 ----------------------------------------------------------------
    1      C      -0.9988090000    -1.6238980000     3.6131270000
    2      C       0.3025120000    -1.9557590000     3.1140990000
    3      C       0.8465520000    -1.4570710000     1.9482580000
    4      C       0.0470320000    -0.5219400000     1.1468310000
    5      C      -1.2739500000    -0.1954790000     1.6336960000
    6      C      -1.8032470000    -0.7050930000     2.7957360000
    7      O      -1.4640470000    -2.0728510000     4.7088650000
    8      O       0.4697710000    -0.0105540000     0.0659480000
    9      N      -3.0707670000    -0.4830870000     3.3246790000
   10      C      -3.9059650000     0.7130300000     3.1695320000
   11      C      -5.0069570000     0.6075660000     4.2398550000
   12      C      -4.5808920000     0.7323510000     1.7813420000
   13      C      -3.1088680000     2.0170270000     3.3956020000
   14      C       2.2557830000    -1.8482650000     1.4706530000
   15      C       2.9488480000    -2.8356660000     2.4292490000
   16      C       2.1707280000    -2.5241320000     0.0798720000
   17      C       3.1469470000    -0.5857480000     1.3701800000
   18      H       0.8558940000    -2.6422210000     3.7443100000
   19      H      -1.8278640000     0.4829630000     0.9968770000
   20      H      -3.0991300000    -0.9147560000     4.2463290000
   21      H      -4.5720440000     0.6035310000     5.2443060000
   22      H      -5.5783370000    -0.3164350000     4.1110140000
   23      H      -5.6961190000     1.4540710000     4.1699740000
   24      H      -5.1454280000    -0.1915470000     1.6302180000
   25      H      -3.8502540000     0.8126480000     0.9764780000
   26      H      -5.2685950000     1.5815950000     1.7009050000
   27      H      -2.6872900000     2.0301300000     4.4048590000
   28      H      -3.7562100000     2.8931730000     3.2783230000
   29      H      -2.2823280000     2.1016230000     2.6886060000
   30      H       3.0755000000    -2.4114450000     3.4297260000
   31      H       3.9438300000    -3.0806100000     2.0410040000
   32      H       2.3883200000    -3.7701250000     2.5266790000
   33      H       1.5744670000    -3.4409550000     0.1376330000
   34      H       3.1740510000    -2.7931840000    -0.2756590000
   35      H       1.7053360000    -1.8498730000    -0.6386700000
   36      H       3.2501360000    -0.1130540000     2.3527480000
   37      H       2.7044070000     0.1335380000     0.6815020000
   38      H       4.1506440000    -0.8542890000     1.0153330000
 ----------------------------------------------------------------

    8    -751.6917291772      8.35e-06  Convergence criterion met
 Total energy in the final basis set =     -751.6917291772

                    Orbital Energies (a.u.)
 --------------------------------------------------------------

 Alpha MOs
 -- Occupied --
-19.0760 -19.0627 -14.3073 -10.2133 -10.2125 -10.2115 -10.1982 -10.1764
-10.1628 -10.1533 -10.1500 -10.1498 -10.1492 -10.1457 -10.1417 -10.1416
-10.1401  -0.9989  -0.9861  -0.9199  -0.8249  -0.8001  -0.7721  -0.7156
 -0.6832  -0.6822  -0.6759  -0.6712  -0.6659  -0.6070  -0.5704  -0.5508
 -0.5232  -0.4902  -0.4786  -0.4581  -0.4493  -0.4434  -0.4305  -0.4276
 -0.4174  -0.4141  -0.4099  -0.4026  -0.3966  -0.3917  -0.3815  -0.3762
 -0.3733  -0.3645  -0.3617  -0.3601  -0.3483  -0.3425  -0.3401  -0.3270
 -0.3233  -0.3212  -0.3145  -0.2976  -0.2624  -0.2444  -0.2261  -0.2049
 -0.1495

 Beta MOs
 -- Occupied --
-19.0698 -19.0574 -14.3062 -10.2115 -10.2110 -10.2107 -10.1971 -10.1766
-10.1602 -10.1533 -10.1498 -10.1497 -10.1492 -10.1457 -10.1415 -10.1415
-10.1404  -0.9881  -0.9766  -0.9172  -0.8210  -0.7984  -0.7699  -0.7139
 -0.6829  -0.6820  -0.6744  -0.6707  -0.6571  -0.6045  -0.5672  -0.5493
 -0.5212  -0.4873  -0.4772  -0.4568  -0.4477  -0.4423  -0.4293  -0.4259
 -0.4157  -0.4124  -0.4010  -0.4002  -0.3923  -0.3878  -0.3760  -0.3728
 -0.3697  -0.3636  -0.3611  -0.3554  -0.3405  -0.3387  -0.3335  -0.3258
 -0.3224  -0.3192  -0.3138  -0.2867  -0.2392  -0.2386  -0.2213  -0.1968

          Ground-State Mulliken Net Atomic Charges

     Atom                 Charge (a.u.)    Spin (a.u.)
  --------------------------------------------------------
      1 C                    -0.882230       0.166093
      2 C                    -0.529026      -0.002332
      3 C                     1.029854       0.229775
      4 C                    -0.325638       0.073197
      5 C                     0.047544      -0.042776
      6 C                    -0.078486       0.123447
      7 O                    -0.528441       0.229946
      8 O                    -0.490550       0.194653
      9 N                     0.033039       0.045346
     10 C                    -0.034442      -0.001882
     11 C                    -0.520108      -0.000471
     12 C                    -0.492341       0.000062
     13 C                    -0.494168       0.002982
     14 C                     0.635301      -0.029447
     15 C                    -0.530163      -0.000819
     16 C                    -0.697468       0.012960
     17 C                    -0.679955       0.013803
     18 H                     0.200582      -0.006133
     19 H                     0.236556      -0.004054
     20 H                     0.331853      -0.003891
     21 H                     0.158885      -0.000019
     22 H                     0.159423       0.000611
     23 H                     0.156929      -0.000078
     24 H                     0.162356       0.000556
     25 H                     0.122880      -0.000502
     26 H                     0.158491       0.000162
     27 H                     0.163925       0.000427
     28 H                     0.159753       0.000559
     29 H                     0.150574      -0.001303
     30 H                     0.136616      -0.000178
     31 H                     0.179041      -0.000098
     32 H                     0.135967      -0.000188
     33 H                     0.138736       0.000706
     34 H                     0.150202       0.001418
     35 H                     0.171757      -0.002465
     36 H                     0.137686       0.000715
     37 H                     0.174470      -0.002277
     38 H                     0.150594       0.001494
  --------------------------------------------------------
  Sum of atomic charges =    -1.000000

                    Cartesian Multipole Moments
 -----------------------------------------------------------------
    Charge (ESU x 10^10)
                -4.8032
    Dipole Moment (Debye)
         X       1.0475      Y       6.0493      Z     -10.1651
       Tot      11.8752
    Quadrupole Moments (Debye-Ang)
        XX    -109.5247     XY     -12.6776     YY    -122.3642
        XZ      10.6106     YZ      27.1984     ZZ    -160.2053

 Total job time:  79.77s(wall), 546.36s(cpu)
        *  Thank you very much for using Q-Chem.  Have a nice day.  *
