 Q-Chem 5.4, Q-Chem, Inc., Pleasanton, CA (2021)
 Q-Chem 5.4.0 for Intel X86 EM64T Linux

User input:
--------------------------------------------------------------
$molecule
0 1
C                  1.5214750000      0.8168820000     -0.8333930000
C                  0.2567800000      1.5523290000     -0.6003110000
C                 -0.8049510000      0.9511870000     -0.0586910000
C                 -0.7730070000     -0.4920730000      0.3043500000
C                  0.4600060000     -1.2656620000      0.0400320000
C                  1.5347500000     -0.6513610000     -0.5251910000
O                  2.5130980000      1.4035570000     -1.2357620000
O                 -1.7669170000     -1.0094620000      0.7960800000
C                  0.4813310000     -2.7168150000      0.4191700000
O                  2.6560830000     -1.3795110000     -0.6957530000
C                  3.6344570000     -1.0832830000     -1.7136880000
H                  0.2722520000      2.6012710000     -0.8737460000
H                 -1.7371980000      1.4669070000      0.1419800000
H                  1.0005690000     -2.8607500000      1.3732460000
H                  1.0166190000     -3.3052330000     -0.3275760000
H                 -0.5355980000     -3.0899160000      0.5336870000
H                  4.1865990000     -2.0136080000     -1.8412590000
H                  4.2995590000     -0.2833590000     -1.3963220000
H                  3.1528030000     -0.8077920000     -2.6532440000
$end
$rem
MAX_SCF_CYCLES=200
BASIS  =  6-311++G(d,p)
GUI  =  2
JOB_TYPE  =  SP
METHOD  =  B3LYP
SOLVENT_METHOD = COSMO
$end
$solvent
dielectric 37.219
opticaldielectric 1.43
$end

--------------------------------------------------------------

             Standard Nuclear Orientation (Angstroms)
    I     Atom           X                Y                Z
 ----------------------------------------------------------------
    1      C       0.7581191342    -1.2048310322    -0.0732061835
    2      C      -0.4503455157    -2.0528471396     0.0498581215
    3      C      -1.6723297116    -1.5168537230     0.0880985088
    4      C      -1.8701576137    -0.0422485453     0.0409571744
    5      C      -0.6803627728     0.8337516634    -0.0341219527
    6      C       0.5637070718     0.2827494971    -0.0587036207
    7      O       1.8594898558    -1.7131484510    -0.2073720404
    8      O      -3.0053969336     0.4126650974     0.0813567089
    9      C      -0.8947873020     2.3173049558    -0.0901322911
   10      O       1.6164372055     1.1149153815    -0.1849601914
   11      C       2.9351888013     0.7879898115     0.2999854513
   12      H      -0.2673410555    -3.1210242869     0.0780068503
   13      H      -2.5761598943    -2.1114177365     0.1581347298
   14      H      -0.8091813186     2.6828945141    -1.1195021416
   15      H      -0.1400417306     2.8410367534     0.4984785318
   16      H      -1.8921462600     2.5663507872     0.2700265258
   17      H       3.4384941747     1.7495880810     0.3930027771
   18      H       3.4623042730     0.1458852331    -0.4020197082
   19      H       2.8856382413     0.3011375047     1.2752653687
 ----------------------------------------------------------------

    9    -535.4478450334      8.82e-06  Convergence criterion met
 Total energy in the final basis set =     -535.4478450334
    5    -535.4609548232      4.86e-06  Convergence criterion met
 Total energy in the final basis set =     -535.4609548232

                    Orbital Energies (a.u.)
 --------------------------------------------------------------

 Alpha MOs
 -- Occupied --
-19.1745 -19.1478 -19.1370 -10.2947 -10.2831 -10.2664 -10.2224 -10.2099
-10.2086 -10.2045 -10.1690  -1.0961  -1.0705  -1.0681  -0.8626  -0.8059
 -0.7412  -0.7006  -0.6921  -0.6162  -0.5983  -0.5403  -0.5282  -0.5013
 -0.4869  -0.4742  -0.4552  -0.4457  -0.4357  -0.4348  -0.4261  -0.4057
 -0.4001  -0.3874  -0.3705  -0.3490  -0.3110  -0.2902  -0.2821  -0.2542

          Ground-State Mulliken Net Atomic Charges

     Atom                 Charge (a.u.)
  ----------------------------------------
      1 C                    -0.000698
      2 C                    -0.018961
      3 C                     0.267959
      4 C                    -1.339161
      5 C                     1.826165
      6 C                    -1.027851
      7 O                    -0.284772
      8 O                    -0.320102
      9 C                    -0.235013
     10 O                    -0.190768
     11 C                    -0.323378
     12 H                     0.261683
     13 H                     0.258459
     14 H                     0.212450
     15 H                     0.183824
     16 H                     0.175822
     17 H                     0.173718
     18 H                     0.198034
     19 H                     0.182590
  ----------------------------------------
  Sum of atomic charges =     0.000000

                    Cartesian Multipole Moments
 -----------------------------------------------------------------
    Charge (ESU x 10^10)
                 0.0000
    Dipole Moment (Debye)
         X       2.3540      Y      -0.5050      Z       0.9855
       Tot       2.6015
    Quadrupole Moments (Debye-Ang)
        XX     -73.9625     XY      10.6937     YY     -60.5579
        XZ       3.0703     YZ      -0.3659     ZZ     -63.6086

 Total job time:  42.95s(wall), 125.85s(cpu)
        *  Thank you very much for using Q-Chem.  Have a nice day.  *
