 Gaussian 16, Revision A.03,
 Gaussian 16:  ES64L-G16RevA.03 25-Dec-2016

 --------------------------------------
 #P UB3LYP/6-311++G(d,p) nosym opt freq
 --------------------------------------

 --------
 Oxidized
 --------
 Symbolic Z-matrix:
 Charge =  0 Multiplicity = 1

 SCF Done:  E(UB3LYP) =  -535.440573768     A.U. after   16 cycles
 SCF Done:  E(UB3LYP) =  -535.440568746     A.U. after   11 cycles
 SCF Done:  E(UB3LYP) =  -535.440575139     A.U. after   10 cycles
 SCF Done:  E(UB3LYP) =  -535.440574878     A.U. after    8 cycles
 SCF Done:  E(UB3LYP) =  -535.440577894     A.U. after   11 cycles
 SCF Done:  E(UB3LYP) =  -535.439926133     A.U. after   14 cycles
 SCF Done:  E(UB3LYP) =  -535.440418051     A.U. after   15 cycles
 SCF Done:  E(UB3LYP) =  -535.440694342     A.U. after   12 cycles
 SCF Done:  E(UB3LYP) =  -535.440143080     A.U. after   14 cycles
 SCF Done:  E(UB3LYP) =  -535.440648234     A.U. after   13 cycles
 SCF Done:  E(UB3LYP) =  -535.447794785     A.U. after   12 cycles
 SCF Done:  E(UB3LYP) =  -535.447892054     A.U. after   14 cycles
 SCF Done:  E(UB3LYP) =  -535.447901047     A.U. after   13 cycles
 SCF Done:  E(UB3LYP) =  -535.447911750     A.U. after   12 cycles
 SCF Done:  E(UB3LYP) =  -535.447914659     A.U. after   11 cycles
 SCF Done:  E(UB3LYP) =  -535.447916494     A.U. after   11 cycles
 SCF Done:  E(UB3LYP) =  -535.447916773     A.U. after   10 cycles
 SCF Done:  E(UB3LYP) =  -535.447916921     A.U. after   10 cycles
 SCF Done:  E(UB3LYP) =  -535.447916941     A.U. after   10 cycles
 Optimization completed.
    -- Stationary point found.
 Normal termination of Gaussian 16 at Wed Jan 17 02:49:05 2024.

 ----------------------------------------------------------------------
 #P Geom=AllCheck Guess=TCheck SCRF=Check GenChk UB3LYP/6-311++G(d,p) F
 req
 ----------------------------------------------------------------------

 Structure from the checkpoint file:  "083.chk"
 --------
 Oxidized
 --------
 Charge =  0 Multiplicity = 1

                          Input orientation:
 ---------------------------------------------------------------------
 Center     Atomic      Atomic             Coordinates (Angstroms)
 Number     Number       Type             X           Y           Z
 ---------------------------------------------------------------------
      1          6           0        1.521475    0.816882   -0.833393
      2          6           0        0.256780    1.552329   -0.600311
      3          6           0       -0.804951    0.951187   -0.058691
      4          6           0       -0.773007   -0.492073    0.304350
      5          6           0        0.460006   -1.265662    0.040032
      6          6           0        1.534750   -0.651361   -0.525191
      7          8           0        2.513098    1.403557   -1.235762
      8          8           0       -1.766917   -1.009462    0.796080
      9          6           0        0.481331   -2.716815    0.419170
     10          8           0        2.656083   -1.379511   -0.695753
     11          6           0        3.634457   -1.083283   -1.713688
     12          1           0        0.272252    2.601271   -0.873746
     13          1           0       -1.737198    1.466907    0.141980
     14          1           0        1.000569   -2.860750    1.373246
     15          1           0        1.016619   -3.305233   -0.327576
     16          1           0       -0.535598   -3.089916    0.533687
     17          1           0        4.186599   -2.013608   -1.841259
     18          1           0        4.299559   -0.283359   -1.396322
     19          1           0        3.152803   -0.807792   -2.653244
 ---------------------------------------------------------------------

 SCF Done:  E(UB3LYP) =  -535.447916941     A.U. after    1 cycles

 Alpha  occ. eigenvalues --  -19.17801 -19.14659 -19.13274 -10.29472 -10.28044
 Alpha  occ. eigenvalues --  -10.26868 -10.23500 -10.21715 -10.21593 -10.20795
 Alpha  occ. eigenvalues --  -10.17362  -1.09861  -1.07077  -1.06282  -0.86688
 Alpha  occ. eigenvalues --   -0.81167  -0.74662  -0.70728  -0.69562  -0.62048
 Alpha  occ. eigenvalues --   -0.60284  -0.54316  -0.53197  -0.50503  -0.49274
 Alpha  occ. eigenvalues --   -0.47450  -0.45538  -0.44917  -0.44021  -0.43887
 Alpha  occ. eigenvalues --   -0.42723  -0.40663  -0.40393  -0.39078  -0.37646
 Alpha  occ. eigenvalues --   -0.35310  -0.31447  -0.28785  -0.27905  -0.25789
 Alpha virt. eigenvalues --   -0.13388  -0.02778  -0.01198  -0.00118  -0.00061
 Alpha virt. eigenvalues --    0.00620   0.02253   0.02465   0.02972   0.03559
 Alpha virt. eigenvalues --    0.04552   0.05654   0.05834   0.06522   0.07344

  Beta  occ. eigenvalues --  -19.17801 -19.14659 -19.13274 -10.29472 -10.28044
  Beta  occ. eigenvalues --  -10.26868 -10.23500 -10.21715 -10.21593 -10.20795
  Beta  occ. eigenvalues --  -10.17362  -1.09861  -1.07077  -1.06282  -0.86688
  Beta  occ. eigenvalues --   -0.81167  -0.74662  -0.70728  -0.69562  -0.62048
  Beta  occ. eigenvalues --   -0.60284  -0.54316  -0.53197  -0.50503  -0.49274
  Beta  occ. eigenvalues --   -0.47450  -0.45538  -0.44917  -0.44021  -0.43887
  Beta  occ. eigenvalues --   -0.42723  -0.40663  -0.40393  -0.39078  -0.37646
  Beta  occ. eigenvalues --   -0.35310  -0.31447  -0.28785  -0.27905  -0.25789
  Beta virt. eigenvalues --   -0.13388  -0.02778  -0.01198  -0.00118  -0.00061
  Beta virt. eigenvalues --    0.00620   0.02253   0.02465   0.02972   0.03559
  Beta virt. eigenvalues --    0.04552   0.05654   0.05834   0.06522   0.07344

 Mulliken charges and spin densities:
               1          2
     1  C   -0.108922  -0.000000
     2  C    0.039131   0.000000
     3  C    0.322129   0.000000
     4  C   -1.421935  -0.000000
     5  C    1.890241  -0.000000
     6  C   -1.093471   0.000000
     7  O   -0.222519   0.000000
     8  O   -0.225236   0.000000
     9  C   -0.212061  -0.000000
    10  O   -0.163064  -0.000000
    11  C   -0.295006  -0.000000
    12  H    0.222192   0.000000
    13  H    0.221700  -0.000000
    14  H    0.189538   0.000000
    15  H    0.168283  -0.000000
    16  H    0.184172   0.000000
    17  H    0.152147   0.000000
    18  H    0.194714   0.000000
    19  H    0.157967   0.000000
 Sum of Mulliken charges =   0.00000  -0.00000

 Dipole moment (field-independent basis, Debye):
    X=              1.2893    Y=              0.1667    Z=             -1.3970  Tot=              1.9083
 Quadrupole moment (field-independent basis, Debye-Ang):
   XX=            -67.4026   YY=            -62.9541   ZZ=            -63.1968
   XY=             -9.2914   XZ=              0.2422   YZ=              3.5840

  Exact polarizability: 136.371  10.650 108.398 -32.438 -15.531  78.576
 Approx polarizability: 251.144  51.807 159.542 -70.308 -35.747 128.825

                      1                      2                      3
                      A                      A                      A
 Frequencies --     38.5942                61.3326                81.2888
 Red. masses --      1.3731                 2.3505                 5.1608
 Frc consts  --      0.0012                 0.0052                 0.0201
 IR Inten    --      4.0817                 4.0719                 6.1953

                      4                      5                      6
                      A                      A                      A
 Frequencies --    112.4967               183.6871               236.4044
 Red. masses --      3.0975                 1.2300                 2.8576
 Frc consts  --      0.0231                 0.0245                 0.0941
 IR Inten    --      7.8039                 0.5262                 0.9226

                      7                      8                      9
                      A                      A                      A
 Frequencies --    256.5270               269.6667               308.4202
 Red. masses --      4.1336                 4.7287                 3.2632
 Frc consts  --      0.1603                 0.2026                 0.1829
 IR Inten    --      1.4253                 1.8605                 1.1036

                     10                     11                     12
                      A                      A                      A
 Frequencies --    377.8694               400.9115               430.9125
 Red. masses --      4.9051                 9.9701                 5.6973
 Frc consts  --      0.4126                 0.9442                 0.6233
 IR Inten    --      1.8716                16.0925                 5.3566

                     13                     14                     15
                      A                      A                      A
 Frequencies --    464.2263               536.7000               609.3836
 Red. masses --     10.5046                 4.0740                 4.7456
 Frc consts  --      1.3338                 0.6914                 1.0383
 IR Inten    --      4.3313                 1.8872                 4.4473

                     16                     17                     18
                      A                      A                      A
 Frequencies --    617.0635               641.0281               755.3163
 Red. masses --      2.7567                 4.5228                 7.0126
 Frc consts  --      0.6184                 1.0950                 2.3571
 IR Inten    --      4.4398                16.2862                14.2199

                     19                     20                     21
                      A                      A                      A
 Frequencies --    775.0267               849.9057               855.0030
 Red. masses --      7.5574                 2.9664                 2.1090
 Frc consts  --      2.6746                 1.2625                 0.9084
 IR Inten    --      2.2798                15.6889                47.7559

                     22                     23                     24
                      A                      A                      A
 Frequencies --   1002.1414              1005.0078              1038.7398
 Red. masses --      3.4337                 1.3372                 2.7383
 Frc consts  --      2.0317                 0.7958                 1.7408
 IR Inten    --     18.2495                 3.2779                47.9087

                     25                     26                     27
                      A                      A                      A
 Frequencies --   1048.4011              1103.0856              1143.9213
 Red. masses --      1.5349                 1.8707                 2.2456
 Frc consts  --      0.9940                 1.3412                 1.7313
 IR Inten    --      9.8062                58.8319                22.3232

                     28                     29                     30
                      A                      A                      A
 Frequencies --   1161.3039              1183.5219              1233.3558
 Red. masses --      1.2532                 1.5500                 2.1189
 Frc consts  --      0.9958                 1.2792                 1.8990
 IR Inten    --      0.7948                55.4859               152.4546

                     31                     32                     33
                      A                      A                      A
 Frequencies --   1316.5013              1341.8064              1383.9125
 Red. masses --      3.5435                 5.0945                 1.8758
 Frc consts  --      3.6185                 5.4042                 2.1166
 IR Inten    --    277.6492                63.2474                 5.8320

                     34                     35                     36
                      A                      A                      A
 Frequencies --   1410.6726              1474.2497              1483.6050
 Red. masses --      1.2796                 1.0738                 1.1836
 Frc consts  --      1.5003                 1.3750                 1.5350
 IR Inten    --     24.9966                 9.4744                22.1900

                     37                     38                     39
                      A                      A                      A
 Frequencies --   1487.9753              1490.9025              1494.4009
 Red. masses --      1.0633                 1.0753                 1.0493
 Frc consts  --      1.3871                 1.4083                 1.3807
 IR Inten    --      9.6284                 0.7964                36.9400

                     40                     41                     42
                      A                      A                      A
 Frequencies --   1628.1649              1680.8705              1701.9068
 Red. masses --      8.0307                 9.4951                 9.9625
 Frc consts  --     12.5430                15.8059                17.0016
 IR Inten    --    154.0721                 0.2509               326.4791

                     43                     44                     45
                      A                      A                      A
 Frequencies --   1720.7993              3027.9508              3049.7466
 Red. masses --     10.2555                 1.0467                 1.0304
 Frc consts  --     17.8924                 5.6542                 5.6466
 IR Inten    --    193.3629                12.2381                48.7804

                     46                     47                     48
                      A                      A                      A
 Frequencies --   3089.3777              3129.4990              3137.9015
 Red. masses --      1.0871                 1.1053                 1.1022
 Frc consts  --      6.1133                 6.3781                 6.3941
 IR Inten    --     12.1641                25.7322                 2.2032

                     49                     50                     51
                      A                      A                      A
 Frequencies --   3150.4639              3178.8192              3197.2044
 Red. masses --      1.1074                 1.0870                 1.1000
 Frc consts  --      6.4760                 6.4718                 6.6250
 IR Inten    --     10.7491                 1.1644                 2.6569

 - Thermochemistry -
 -------------------
 Temperature   298.150 Kelvin.  Pressure   1.00000 Atm.
 Atom     1 has atomic number  6 and mass  12.00000

 Molecular mass:   152.04734 amu.
 Principal axes and moments of inertia in atomic units:
                           1         2         3
     Eigenvalues --  1042.251351780.749562777.84733
           X            0.91321  -0.15968   0.37490
           Y            0.08811   0.97563   0.20094
           Z           -0.39786  -0.15047   0.90503
 This molecule is an asymmetric top.
 Rotational symmetry number  1.
 Warning -- assumption of classical behavior for rotation
           may cause significant error
 Rotational temperatures (Kelvin)      0.08310     0.04864     0.03118
 Rotational constants (GHZ):           1.73158     1.01347     0.64969
 Zero-point vibrational energy     378964.8 (Joules/Mol)
                                   90.57477 (Kcal/Mol)
 Warning -- explicit consideration of  16 degrees of freedom as
           vibrations may cause significant error
 Vibrational temperatures:     55.53    88.24   116.96   161.86   264.28
          (Kelvin)            340.13   369.09   387.99   443.75   543.67
                              576.82   619.99   667.92   772.19   876.77
                              887.82   922.30  1086.73  1115.09  1222.82
                             1230.16  1441.86  1445.98  1494.51  1508.42
                             1587.09  1645.85  1670.86  1702.82  1774.52
                             1894.15  1930.56  1991.14  2029.64  2121.12
                             2134.58  2140.86  2145.08  2150.11  2342.57
                             2418.40  2448.66  2475.85  4356.55  4387.91
                             4444.93  4502.65  4514.74  4532.81  4573.61
                             4600.06

 Zero-point correction=                           0.144340 (Hartree/Particle)
 Thermal correction to Energy=                    0.155190
 Thermal correction to Enthalpy=                  0.156134
 Thermal correction to Gibbs Free Energy=         0.106916
 Sum of electronic and zero-point Energies=           -535.303577
 Sum of electronic and thermal Energies=              -535.292727
 Sum of electronic and thermal Enthalpies=            -535.291783
 Sum of electronic and thermal Free Energies=         -535.341001

                     E (Thermal)             CV                S
                      KCal/Mol        Cal/Mol-Kelvin    Cal/Mol-Kelvin
 Total                   97.383             38.597            103.588
 Electronic               0.000              0.000              0.000
 Translational            0.889              2.981             40.967
 Rotational               0.889              2.981             30.023
 Vibrational             95.605             32.635             32.597
 Vibration     1          0.594              1.981              5.330
 Vibration     2          0.597              1.973              4.414
 Vibration     3          0.600              1.962              3.860
 Vibration     4          0.607              1.939              3.225
 Vibration     5          0.631              1.862              2.291
 Vibration     6          0.655              1.785              1.830
 Vibration     7          0.666              1.752              1.685
 Vibration     8          0.674              1.729              1.598
 Vibration     9          0.698              1.658              1.371
 Vibration    10          0.748              1.517              1.048
 Vibration    11          0.767              1.468              0.959
 Vibration    12          0.792              1.403              0.856
 Vibration    13          0.822              1.329              0.754
 Vibration    14          0.892              1.169              0.572
 Vibration    15          0.968              1.012              0.434
 Vibration    16          0.977              0.996              0.421

 Optimization completed.
    -- Stationary point found.
 Normal termination of Gaussian 16 at Wed Jan 17 03:03:08 2024.
