 Q-Chem 5.4, Q-Chem, Inc., Pleasanton, CA (2021)
 Q-Chem 5.4.0 for Intel X86 EM64T Linux

User input:
--------------------------------------------------------------
$molecule
0 1
C                 -4.6763190000      0.2947090000     -0.0934400000
C                 -3.2249610000     -0.1047060000     -0.0262690000
C                 -2.8499550000     -1.4403520000     -0.0136090000
C                 -1.4997170000     -1.8189680000      0.0474150000
O                 -1.2255940000     -3.1294900000      0.0555130000
C                 -0.4924040000     -0.8247300000      0.0974190000
C                  0.9139680000     -1.1984730000      0.1605900000
O                  1.2493280000     -2.4134030000      0.1718760000
C                  1.9362830000     -0.1540120000      0.2105110000
C                  3.3094410000     -0.5002340000      0.2709590000
O                  3.7397070000     -1.7682590000      0.2859630000
C                  4.2784060000      0.5149540000      0.3178430000
C                  3.8971120000      1.8450220000      0.3053800000
C                  2.5459710000      2.2037860000      0.2461410000
C                  1.5735000000      1.2154400000      0.1990470000
C                  0.1377240000      1.6226540000      0.1359520000
O                 -0.1853140000      2.7990900000      0.1268100000
C                 -0.8865960000      0.5365930000      0.0843280000
C                 -2.2243660000      0.8843770000      0.0238710000
H                 -4.8717040000      0.8952980000     -0.9868790000
H                 -5.3326450000     -0.5762560000     -0.1178910000
H                 -4.9506850000      0.9060600000      0.7713480000
H                 -3.5911830000     -2.2302990000     -0.0505960000
H                 -0.2460650000     -3.2257490000      0.1003980000
H                  2.9454020000     -2.3500540000      0.2483380000
H                  5.3203430000      0.2225260000      0.3635250000
H                  4.6569060000      2.6175360000      0.3420510000
H                  2.2366330000      3.2406210000      0.2359010000
H                 -2.4832160000      1.9363170000      0.0159980000
$end
$rem
MAX_SCF_CYCLES=200
BASIS  =  6-311++G(d,p)
GUI  =  2
JOB_TYPE  =  SP
METHOD  =  B3LYP
SOLVENT_METHOD = PCM
$end
$pcm
theory = CPCM
$end
$solvent
dielectric 37.219
opticaldielectric 1.43
$end

--------------------------------------------------------------

             Standard Nuclear Orientation (Angstroms)
    I     Atom           X                Y                Z
 ----------------------------------------------------------------
    1      C      -4.6763190000     0.2947090000    -0.0934400000
    2      C      -3.2249610000    -0.1047060000    -0.0262690000
    3      C      -2.8499550000    -1.4403520000    -0.0136090000
    4      C      -1.4997170000    -1.8189680000     0.0474150000
    5      O      -1.2255940000    -3.1294900000     0.0555130000
    6      C      -0.4924040000    -0.8247300000     0.0974190000
    7      C       0.9139680000    -1.1984730000     0.1605900000
    8      O       1.2493280000    -2.4134030000     0.1718760000
    9      C       1.9362830000    -0.1540120000     0.2105110000
   10      C       3.3094410000    -0.5002340000     0.2709590000
   11      O       3.7397070000    -1.7682590000     0.2859630000
   12      C       4.2784060000     0.5149540000     0.3178430000
   13      C       3.8971120000     1.8450220000     0.3053800000
   14      C       2.5459710000     2.2037860000     0.2461410000
   15      C       1.5735000000     1.2154400000     0.1990470000
   16      C       0.1377240000     1.6226540000     0.1359520000
   17      O      -0.1853140000     2.7990900000     0.1268100000
   18      C      -0.8865960000     0.5365930000     0.0843280000
   19      C      -2.2243660000     0.8843770000     0.0238710000
   20      H      -4.8717040000     0.8952980000    -0.9868790000
   21      H      -5.3326450000    -0.5762560000    -0.1178910000
   22      H      -4.9506850000     0.9060600000     0.7713480000
   23      H      -3.5911830000    -2.2302990000    -0.0505960000
   24      H      -0.2460650000    -3.2257490000     0.1003980000
   25      H       2.9454020000    -2.3500540000     0.2483380000
   26      H       5.3203430000     0.2225260000     0.3635250000
   27      H       4.6569060000     2.6175360000     0.3420510000
   28      H       2.2366330000     3.2406210000     0.2359010000
   29      H      -2.4832160000     1.9363170000     0.0159980000
 ----------------------------------------------------------------

    9    -878.8141628072      2.84e-06  Convergence criterion met
 Total energy in the final basis set =     -878.8141628072

                    Orbital Energies (a.u.)
 --------------------------------------------------------------

 Alpha MOs
 -- Occupied --
-19.1657 -19.1655 -19.1469 -19.1317 -10.2941 -10.2850 -10.2691 -10.2685
-10.2120 -10.2117 -10.2110 -10.2106 -10.2075 -10.2016 -10.1950 -10.1936
-10.1907 -10.1906 -10.1716  -1.0989  -1.0871  -1.0673  -1.0597  -0.8952
 -0.8803  -0.8236  -0.7853  -0.7766  -0.7700  -0.7238  -0.6916  -0.6698
 -0.6456  -0.6218  -0.6170  -0.5658  -0.5570  -0.5441  -0.5328  -0.5052
 -0.4994  -0.4952  -0.4710  -0.4692  -0.4646  -0.4557  -0.4453  -0.4407
 -0.4298  -0.4231  -0.4229  -0.4139  -0.4049  -0.3943  -0.3913  -0.3820
 -0.3768  -0.3734  -0.3605  -0.3483  -0.3013  -0.2928  -0.2798  -0.2742
 -0.2561  -0.2474

          Ground-State Mulliken Net Atomic Charges

     Atom                 Charge (a.u.)
  ----------------------------------------
      1 C                    -0.342137
      2 C                     0.523916
      3 C                    -0.971380
      4 C                    -0.060215
      5 O                    -0.328101
      6 C                     0.517045
      7 C                    -0.509633
      8 O                    -0.395704
      9 C                     0.522094
     10 C                    -0.040627
     11 O                    -0.329277
     12 C                    -0.218228
     13 C                    -0.419438
     14 C                    -0.030310
     15 C                     0.118328
     16 C                    -0.543086
     17 O                    -0.281680
     18 C                     0.221865
     19 C                     0.189772
     20 H                     0.190659
     21 H                     0.185829
     22 H                     0.189430
     23 H                     0.203749
     24 H                     0.385580
     25 H                     0.386828
     26 H                     0.231571
     27 H                     0.236742
     28 H                     0.187586
     29 H                     0.178821
  ----------------------------------------
  Sum of atomic charges =     0.000000

                    Cartesian Multipole Moments
 -----------------------------------------------------------------
    Charge (ESU x 10^10)
                 0.0000
    Dipole Moment (Debye)
         X      -1.2723      Y       0.9714      Z      -0.0651
       Tot       1.6021
    Quadrupole Moments (Debye-Ang)
        XX     -86.1205     XY       8.9542     YY    -122.1705
        XZ       1.0368     YZ       0.4703     ZZ    -111.2018

 Total job time:  57.74s(wall), 417.85s(cpu)
        *  Thank you very much for using Q-Chem.  Have a nice day.  *
