 Gaussian 16, Revision A.03,
 Gaussian 16:  ES64L-G16RevA.03 25-Dec-2016

 ----------------------------------------------------------------
 #P UB3LYP/6-311++G(d,p) SCRF=(PCM,Solvent=n,n-DiMethylFormamide)
 ----------------------------------------------------------------

 ------------------
 Quinone PCM in DMF
 ------------------
 Symbolic Z-matrix:
 Charge =  0 Multiplicity = 1

                         Standard orientation:
 ---------------------------------------------------------------------
 Center     Atomic      Atomic             Coordinates (Angstroms)
 Number     Number       Type             X           Y           Z
 ---------------------------------------------------------------------
      1          6           0       -4.876612   -1.069547    0.002865
      2          6           0       -3.489020   -0.482123    0.000613
      3          6           0       -3.293144    0.891330    0.000268
      4          6           0       -2.003223    1.444791   -0.000387
      5          8           0       -1.904141    2.780029   -0.000691
      6          6           0       -0.872431    0.592150   -0.000736
      7          6           0        0.473816    1.148186   -0.000955
      8          8           0        0.646281    2.396747   -0.001301
      9          6           0        1.626079    0.247737   -0.000354
     10          6           0        2.942940    0.772107    0.000730
     11          8           0        3.202555    2.085820    0.000812
     12          6           0        4.038378   -0.106365    0.001821
     13          6           0        3.835550   -1.475117    0.001661
     14          6           0        2.542199   -2.009014    0.000421
     15          6           0        1.446818   -1.157612   -0.000524
     16          6           0        0.075870   -1.750703   -0.001604
     17          8           0       -0.089369   -2.959477   -0.002975
     18          6           0       -1.083940   -0.809286   -0.000745
     19          6           0       -2.365553   -1.330540   -0.000198
     20          1           0       -5.031804   -1.692832    0.888612
     21          1           0       -5.642433   -0.292769   -0.005835
     22          1           0       -5.028150   -1.709618   -0.871337
     23          1           0       -4.132932    1.576574    0.000506
     24          1           0       -0.944826    3.004688   -0.001137
     25          1           0        2.337615    2.557731    0.000015
     26          1           0        5.033671    0.320980    0.002721
     27          1           0        4.691410   -2.140633    0.002524
     28          1           0        2.372076   -3.077602    0.000267
     29          1           0       -2.483583   -2.407439   -0.000355
 ---------------------------------------------------------------------

 SCF Done:  E(UB3LYP) =  -878.809537832     A.U. after   16 cycles

 The electronic state is 1-A.
 Alpha  occ. eigenvalues --  -19.16763 -19.16734 -19.14937 -19.13274 -10.29637
 Alpha  occ. eigenvalues --  -10.28603 -10.27151 -10.27095 -10.21499 -10.21399
 Alpha  occ. eigenvalues --  -10.21328 -10.21292 -10.20987 -10.20492 -10.19809
 Alpha  occ. eigenvalues --  -10.19631 -10.19383 -10.19345 -10.17653  -1.10106
 Alpha  occ. eigenvalues --   -1.08916  -1.06806  -1.06195  -0.89765  -0.88282
 Alpha  occ. eigenvalues --   -0.82641  -0.78820  -0.77904  -0.77261  -0.72721
 Alpha  occ. eigenvalues --   -0.69415  -0.67245  -0.64870  -0.62454  -0.61951
 Alpha  occ. eigenvalues --   -0.56840  -0.55944  -0.54658  -0.53532  -0.50812
 Alpha  occ. eigenvalues --   -0.50207  -0.49802  -0.47311  -0.47191  -0.46613
 Alpha  occ. eigenvalues --   -0.45826  -0.44790  -0.44321  -0.43121  -0.42639
 Alpha  occ. eigenvalues --   -0.42572  -0.41666  -0.40708  -0.39764  -0.39494
 Alpha  occ. eigenvalues --   -0.38564  -0.37971  -0.37607  -0.36257  -0.35041
 Alpha  occ. eigenvalues --   -0.30330  -0.29519  -0.28094  -0.27690  -0.25811
 Alpha  occ. eigenvalues --   -0.24963
 Alpha virt. eigenvalues --   -0.12513  -0.07101  -0.04017  -0.01800  -0.00759
 Alpha virt. eigenvalues --    0.00102   0.00580   0.01561   0.02025   0.02097
 Alpha virt. eigenvalues --    0.03426   0.03506   0.03711   0.03818   0.04165

  Beta  occ. eigenvalues --  -19.16763 -19.16734 -19.14937 -19.13274 -10.29637
  Beta  occ. eigenvalues --  -10.28603 -10.27151 -10.27095 -10.21499 -10.21399
  Beta  occ. eigenvalues --  -10.21328 -10.21292 -10.20987 -10.20492 -10.19809
  Beta  occ. eigenvalues --  -10.19631 -10.19383 -10.19345 -10.17653  -1.10106
  Beta  occ. eigenvalues --   -1.08916  -1.06806  -1.06195  -0.89765  -0.88282
  Beta  occ. eigenvalues --   -0.82641  -0.78820  -0.77904  -0.77261  -0.72721
  Beta  occ. eigenvalues --   -0.69415  -0.67245  -0.64870  -0.62454  -0.61951
  Beta  occ. eigenvalues --   -0.56840  -0.55944  -0.54658  -0.53532  -0.50812
  Beta  occ. eigenvalues --   -0.50207  -0.49802  -0.47311  -0.47191  -0.46613
  Beta  occ. eigenvalues --   -0.45826  -0.44790  -0.44321  -0.43121  -0.42639
  Beta  occ. eigenvalues --   -0.42572  -0.41666  -0.40708  -0.39764  -0.39494
  Beta  occ. eigenvalues --   -0.38564  -0.37971  -0.37607  -0.36257  -0.35041
  Beta  occ. eigenvalues --   -0.30330  -0.29519  -0.28094  -0.27690  -0.25811
  Beta  occ. eigenvalues --   -0.24963
  Beta virt. eigenvalues --   -0.12513  -0.07101  -0.04017  -0.01800  -0.00759
  Beta virt. eigenvalues --    0.00102   0.00580   0.01561   0.02025   0.02097
  Beta virt. eigenvalues --    0.03426   0.03506   0.03711   0.03818   0.04165

 Mulliken charges and spin densities:
               1          2
     1  C   -0.308312   0.000000
     2  C    0.557882  -0.000000
     3  C   -0.959269   0.000000
     4  C   -0.076850   0.000000
     5  O   -0.314054   0.000000
     6  C    0.506259  -0.000000
     7  C   -0.521831  -0.000000
     8  O   -0.387197   0.000000
     9  C    0.516652  -0.000000
    10  C   -0.047995  -0.000000
    11  O   -0.315675   0.000000
    12  C   -0.189788  -0.000000
    13  C   -0.399941  -0.000000
    14  C   -0.020730   0.000000
    15  C    0.122661  -0.000000
    16  C   -0.577900  -0.000000
    17  O   -0.265954   0.000000
    18  C    0.222537   0.000000
    19  C    0.199485   0.000000
    20  H    0.183794   0.000000
    21  H    0.178011   0.000000
    22  H    0.182480   0.000000
    23  H    0.184403   0.000000
    24  H    0.374126   0.000000
    25  H    0.375451   0.000000
    26  H    0.215825   0.000000
    27  H    0.220929   0.000000
    28  H    0.176907  -0.000000
    29  H    0.168092  -0.000000
 Sum of Mulliken charges =  -0.00000  -0.00000

 Dipole moment (field-independent basis, Debye):
    X=             -1.1105    Y=             -1.1415    Z=              0.0093  Tot=              1.5926
 Quadrupole moment (field-independent basis, Debye-Ang):
   XX=            -85.0032   YY=           -123.2609   ZZ=           -111.1726
   XY=             -3.2613   XZ=             -0.0113   YZ=             -0.0217

 Normal termination of Gaussian 16 at Tue Jan 16 05:08:07 2024.
