 Q-Chem 5.4, Q-Chem, Inc., Pleasanton, CA (2021)
 Q-Chem 5.4.0 for Intel X86 EM64T Linux

User input:
--------------------------------------------------------------
$molecule
-2 1
C                  5.7132790000     -5.2406850000      1.1199080000
C                  6.6565850000     -5.0969330000      0.1290940000
C                  6.5215270000     -4.0737160000     -0.8359650000
C                  4.6299600000     -4.3409130000      1.2492710000
C                  4.4749470000     -3.3095320000      0.2404450000
C                  5.4708810000     -3.1867310000     -0.7509660000
C                  3.6965220000     -4.5055340000      2.3461490000
C                  2.6025930000     -3.5790790000      2.3289740000
C                  2.4672030000     -2.5839940000      1.3515380000
C                  3.3525330000     -2.3823440000      0.2507560000
O                  3.8318310000     -5.4042870000      3.2611360000
O                  3.1830050000     -1.4755440000     -0.6454130000
H                  5.7497570000     -6.0670340000      1.8219630000
H                  5.3836130000     -2.3452140000     -1.4304470000
Br                 7.9428060000     -6.5866850000     -0.1371070000
Br                 8.0255380000     -3.6033010000     -2.0448270000
C                  1.5942380000     -3.6963170000      3.4438800000
H                  1.6095810000     -1.9114480000      1.4006550000
H                  2.0579170000     -3.5151940000      4.4240620000
H                  1.1860970000     -4.7142750000      3.4993610000
H                  0.7697570000     -2.9857700000      3.3093740000
$end
$rem
MAX_SCF_CYCLES=200
BASIS  =  6-311++G(d,p)
GUI  =  2
JOB_TYPE  =  SP
METHOD  =  B3LYP
SOLVENT_METHOD = PCM
$end
$pcm
theory = CPCM
$end
$solvent
dielectric 37.219
opticaldielectric 1.43
$end

--------------------------------------------------------------

             Standard Nuclear Orientation (Angstroms)
    I     Atom           X                Y                Z
 ----------------------------------------------------------------
    1      C       5.7132790000    -5.2406850000     1.1199080000
    2      C       6.6565850000    -5.0969330000     0.1290940000
    3      C       6.5215270000    -4.0737160000    -0.8359650000
    4      C       4.6299600000    -4.3409130000     1.2492710000
    5      C       4.4749470000    -3.3095320000     0.2404450000
    6      C       5.4708810000    -3.1867310000    -0.7509660000
    7      C       3.6965220000    -4.5055340000     2.3461490000
    8      C       2.6025930000    -3.5790790000     2.3289740000
    9      C       2.4672030000    -2.5839940000     1.3515380000
   10      C       3.3525330000    -2.3823440000     0.2507560000
   11      O       3.8318310000    -5.4042870000     3.2611360000
   12      O       3.1830050000    -1.4755440000    -0.6454130000
   13      H       5.7497570000    -6.0670340000     1.8219630000
   14      H       5.3836130000    -2.3452140000    -1.4304470000
   15      Br      7.9428060000    -6.5866850000    -0.1371070000
   16      Br      8.0255380000    -3.6033010000    -2.0448270000
   17      C       1.5942380000    -3.6963170000     3.4438800000
   18      H       1.6095810000    -1.9114480000     1.4006550000
   19      H       2.0579170000    -3.5151940000     4.4240620000
   20      H       1.1860970000    -4.7142750000     3.4993610000
   21      H       0.7697570000    -2.9857700000     3.3093740000
 ----------------------------------------------------------------

   10   -5721.9245881968      5.95e-06  Convergence criterion met
 Total energy in the final basis set =    -5721.9245881968

                    Orbital Energies (a.u.)
 --------------------------------------------------------------

 Alpha MOs
 -- Occupied --
********-482.8225 -62.4754 -62.4753 -56.2958 -56.2957 -56.2921 -56.2920
-56.2920 -56.2918 -19.0270 -19.0252 -10.2209 -10.2196 -10.1810 -10.1761
-10.1690 -10.1682 -10.1503 -10.1498 -10.1421 -10.1384 -10.1273  -8.6839
 -8.6838  -6.5149  -6.5148  -6.5026  -6.5025  -6.5024  -6.5023  -2.6258
 -2.6257  -2.6224  -2.6223  -2.6222  -2.6220  -2.6124  -2.6124  -2.6123
 -2.6122  -0.9448  -0.9406  -0.8628  -0.7972  -0.7879  -0.7676  -0.7291
 -0.7166  -0.6716  -0.6351  -0.5977  -0.5696  -0.5321  -0.4813  -0.4629
 -0.4496  -0.4211  -0.4183  -0.4016  -0.3977  -0.3867  -0.3767  -0.3635
 -0.3585  -0.3524  -0.3461  -0.3263  -0.3248  -0.3192  -0.3077  -0.2986
 -0.2873  -0.2754  -0.2403  -0.2310  -0.2173  -0.2087  -0.2027  -0.1201

          Ground-State Mulliken Net Atomic Charges

     Atom                 Charge (a.u.)
  ----------------------------------------
      1 C                    -0.153990
      2 C                    -0.068540
      3 C                     0.239442
      4 C                     0.116670
      5 C                     0.455014
      6 C                    -0.415763
      7 C                    -0.520366
      8 C                     0.776524
      9 C                    -0.373107
     10 C                    -0.736590
     11 O                    -0.695556
     12 O                    -0.705467
     13 H                     0.186416
     14 H                     0.187465
     15 Br                   -0.258470
     16 Br                   -0.255982
     17 C                    -0.346512
     18 H                     0.119591
     19 H                     0.152716
     20 H                     0.152135
     21 H                     0.144371
  ----------------------------------------
  Sum of atomic charges =    -2.000000

                    Cartesian Multipole Moments
 -----------------------------------------------------------------
    Charge (ESU x 10^10)
                -9.6064
    Dipole Moment (Debye)
         X     -41.7579      Y      35.8794      Z      -8.0656
       Tot      55.6427
    Quadrupole Moments (Debye-Ang)
        XX    -332.2464     XY     171.0301     YY    -289.4127
        XZ     -25.1861     YZ      53.3509     ZZ    -165.4314

 Total job time:  48.51s(wall), 303.54s(cpu)
        *  Thank you very much for using Q-Chem.  Have a nice day.  *
