 Q-Chem 5.4, Q-Chem, Inc., Pleasanton, CA (2021)
 Q-Chem 5.4.0 for Intel X86 EM64T Linux

User input:
--------------------------------------------------------------
$molecule
0 1
N                 -2.5816120000      0.6580750000      2.2701650000
C                 -2.4221200000      0.3370370000      0.9618870000
C                 -3.5648540000      0.1893530000      0.1381900000
C                 -3.4475810000     -0.1357360000     -1.1959820000
C                 -2.1888250000     -0.3299250000     -1.7771530000
C                 -1.0491180000     -0.1933520000     -1.0003040000
C                  0.2695520000     -0.4111160000     -1.6696940000
O                  0.3479370000     -0.6973780000     -2.8531450000
C                  1.4928210000     -0.2651140000     -0.8342830000
C                  2.7439370000     -0.4604080000     -1.4192290000
C                  3.9002470000     -0.3302170000     -0.6622070000
Cl                 5.4444230000     -0.5824110000     -1.4302790000
C                  3.8077720000      0.0001990000      0.7003500000
Cl                 5.2340870000      0.1735600000      1.6871370000
C                  2.5623780000      0.1947930000      1.2832260000
C                  1.3992250000      0.0643660000      0.5243470000
C                  0.0794560000      0.2818200000      1.1894320000
O                  0.0549290000      0.5706400000      2.3902150000
C                 -1.1330800000      0.1409890000      0.3792910000
H                 -1.7583350000      0.7603710000      2.8498670000
H                 -3.5037570000      0.7879980000      2.6490570000
H                 -4.5449300000      0.3381320000      0.5797510000
H                 -4.3419970000     -0.2414990000     -1.7996640000
H                 -2.0817340000     -0.5852590000     -2.8228010000
H                  2.7999520000     -0.7143980000     -2.4696870000
H                  2.4812240000      0.4494810000      2.3315120000
$end

$rem
BASIS  =  6-311++G(d,p)
GUI  =  2
JOB_TYPE  =  SP
METHOD  =  B3LYP
SCF_CONVERGENCE  = 8
SOLVENT_METHOD = sm12
$end

$smx
solvent dimethylformamide
charges CM5
$end

--------------------------------------------------------------

             Standard Nuclear Orientation (Angstroms)
    I     Atom           X                Y                Z
 ----------------------------------------------------------------
    1      N      -2.5816120000     0.6580750000     2.2701650000
    2      C      -2.4221200000     0.3370370000     0.9618870000
    3      C      -3.5648540000     0.1893530000     0.1381900000
    4      C      -3.4475810000    -0.1357360000    -1.1959820000
    5      C      -2.1888250000    -0.3299250000    -1.7771530000
    6      C      -1.0491180000    -0.1933520000    -1.0003040000
    7      C       0.2695520000    -0.4111160000    -1.6696940000
    8      O       0.3479370000    -0.6973780000    -2.8531450000
    9      C       1.4928210000    -0.2651140000    -0.8342830000
   10      C       2.7439370000    -0.4604080000    -1.4192290000
   11      C       3.9002470000    -0.3302170000    -0.6622070000
   12      Cl      5.4444230000    -0.5824110000    -1.4302790000
   13      C       3.8077720000     0.0001990000     0.7003500000
   14      Cl      5.2340870000     0.1735600000     1.6871370000
   15      C       2.5623780000     0.1947930000     1.2832260000
   16      C       1.3992250000     0.0643660000     0.5243470000
   17      C       0.0794560000     0.2818200000     1.1894320000
   18      O       0.0549290000     0.5706400000     2.3902150000
   19      C      -1.1330800000     0.1409890000     0.3792910000
   20      H      -1.7583350000     0.7603710000     2.8498670000
   21      H      -3.5037570000     0.7879980000     2.6490570000
   22      H      -4.5449300000     0.3381320000     0.5797510000
   23      H      -4.3419970000    -0.2414990000    -1.7996640000
   24      H      -2.0817340000    -0.5852590000    -2.8228010000
   25      H       2.7999520000    -0.7143980000    -2.4696870000
   26      H       2.4812240000     0.4494810000     2.3315120000
 ----------------------------------------------------------------

   15   -1663.5755244106      6.47e-09  Convergence criterion met
 Total energy in the final basis set =    -1663.5987827527

                    Orbital Energies (a.u.)
 --------------------------------------------------------------

 Alpha MOs
 -- Occupied --
********-101.5756 -19.1299 -19.1279 -14.3361 -10.2837 -10.2822 -10.2739
-10.2730 -10.2506 -10.2202 -10.2188 -10.2162 -10.2150 -10.2090 -10.2044
-10.1984 -10.1944 -10.1888  -9.4906  -9.4902  -7.2554  -7.2550  -7.2455
 -7.2452  -7.2446  -7.2443  -1.0656  -1.0616  -0.9460  -0.9405  -0.8820
 -0.8806  -0.8642  -0.8050  -0.7853  -0.7633  -0.7588  -0.6912  -0.6727
 -0.6507  -0.6307  -0.5957  -0.5744  -0.5619  -0.5299  -0.5200  -0.5106
 -0.4984  -0.4811  -0.4768  -0.4683  -0.4641  -0.4565  -0.4520  -0.4376
 -0.4336  -0.4233  -0.4215  -0.4008  -0.3963  -0.3867  -0.3798  -0.3674
 -0.3497  -0.3473  -0.3354  -0.3279  -0.2890  -0.2869  -0.2842  -0.2765
 -0.2724  -0.2281

          Ground-State Mulliken Net Atomic Charges

     Atom                 Charge (a.u.)
  ----------------------------------------
      1 N                    -0.309980
      2 C                     0.557468
      3 C                     1.690736
      4 C                     0.354628
      5 C                    -0.120925
      6 C                    -0.272065
      7 C                    -1.753729
      8 O                    -0.264986
      9 C                    -1.042991
     10 C                    -0.434159
     11 C                     0.438639
     12 Cl                    0.617100
     13 C                     0.549618
     14 Cl                    0.623537
     15 C                    -0.003849
     16 C                    -0.212167
     17 C                    -1.703497
     18 O                    -0.247622
     19 C                    -0.508219
     20 H                     0.289640
     21 H                     0.445710
     22 H                     0.324299
     23 H                     0.323717
     24 H                     0.156299
     25 H                     0.242012
     26 H                     0.260788
  ----------------------------------------
  Sum of atomic charges =     0.000000

                    Cartesian Multipole Moments
 -----------------------------------------------------------------
    Charge (ESU x 10^10)
                 0.0000
    Dipole Moment (Debye)
         X      -5.5865      Y       0.7357      Z       2.0652
       Tot       6.0012
    Quadrupole Moments (Debye-Ang)
        XX    -106.7543     XY      -1.9699     YY    -125.0864
        XZ      -4.9087     YZ      -0.2083     ZZ    -126.8734

 Total job time:  562.45s(wall), 4386.59s(cpu)
        *  Thank you very much for using Q-Chem.  Have a nice day.  *
