 Gaussian 16, Revision A.03,
 Gaussian 16:  ES64L-G16RevA.03 25-Dec-2016

 --------------------------------------
 #P UB3LYP/6-311++G(d,p) nosym opt freq
 --------------------------------------

 --------
 Oxidized
 --------
 Symbolic Z-matrix:
 Charge =  0 Multiplicity = 1

 SCF Done:  E(UB3LYP) =  -573.558932413     A.U. after   16 cycles
 SCF Done:  E(UB3LYP) =  -573.564066426     A.U. after   14 cycles
 SCF Done:  E(UB3LYP) =  -573.565231391     A.U. after   13 cycles
 SCF Done:  E(UB3LYP) =  -573.565431816     A.U. after   12 cycles
 SCF Done:  E(UB3LYP) =  -573.565439155     A.U. after   12 cycles
 SCF Done:  E(UB3LYP) =  -573.565421332     A.U. after   12 cycles
 SCF Done:  E(UB3LYP) =  -573.565441046     A.U. after   12 cycles
 SCF Done:  E(UB3LYP) =  -573.565441527     A.U. after   10 cycles
 Optimization completed.
    -- Stationary point found.
 Normal termination of Gaussian 16 at Sun Dec 17 21:09:03 2023.

 ----------------------------------------------------------------------
 #P Geom=AllCheck Guess=TCheck SCRF=Check GenChk UB3LYP/6-311++G(d,p) F
 req
 ----------------------------------------------------------------------

 Structure from the checkpoint file:  "059.chk"
 --------
 Oxidized
 --------
 Charge =  0 Multiplicity = 1

                          Input orientation:
 ---------------------------------------------------------------------
 Center     Atomic      Atomic             Coordinates (Angstroms)
 Number     Number       Type             X           Y           Z
 ---------------------------------------------------------------------
      1          6           0       -0.553216    1.140740   -0.281846
      2          6           0       -1.522196    0.120445   -0.838871
      3          6           0       -1.265482   -1.194728   -0.725239
      4          6           0       -0.055228   -1.695419   -0.067571
      5          6           0        0.895361   -0.692724    0.478966
      6          6           0        0.700822    0.637570    0.400006
      7          8           0       -0.806320    2.320355   -0.396345
      8          8           0        0.188071   -2.888355    0.041265
      9          6           0        1.703859    1.621640    0.975293
     10          6           0        2.966561    1.109456    1.660220
     11          8           0        1.526307    2.815688    0.904230
     12          1           0        3.092660    0.031001    1.704954
     13          1           0        2.974045    1.507692    2.677480
     14          1           0        3.823012    1.543092    1.138768
     15          1           0        1.765215   -1.130580    0.950210
     16          6           0       -2.758794    0.650912   -1.510529
     17          1           0       -1.941796   -1.949211   -1.114910
     18          1           0       -2.771901    1.738880   -1.494022
     19          1           0       -3.656218    0.281256   -1.006999
     20          1           0       -2.803613    0.314951   -2.550089
 ---------------------------------------------------------------------

 SCF Done:  E(UB3LYP) =  -573.565441527     A.U. after    1 cycles

 Alpha  occ. eigenvalues --  -19.14769 -19.14710 -19.13079 -10.29782 -10.29345
 Alpha  occ. eigenvalues --  -10.28962 -10.23835 -10.23489 -10.23470 -10.21454
 Alpha  occ. eigenvalues --  -10.19141 -10.18912  -1.08415  -1.07667  -1.06630
 Alpha  occ. eigenvalues --   -0.88211  -0.83219  -0.76384  -0.74189  -0.70833
 Alpha  occ. eigenvalues --   -0.65927  -0.60982  -0.56731  -0.54345  -0.51892
 Alpha  occ. eigenvalues --   -0.49587  -0.47696  -0.47365  -0.45926  -0.45445
 Alpha  occ. eigenvalues --   -0.45049  -0.43695  -0.43584  -0.42286  -0.41609
 Alpha  occ. eigenvalues --   -0.41391  -0.39950  -0.38127  -0.32460  -0.30540
 Alpha  occ. eigenvalues --   -0.30424  -0.29623  -0.25800
 Alpha virt. eigenvalues --   -0.14819  -0.07835  -0.02366  -0.01572  -0.00814
 Alpha virt. eigenvalues --    0.00706   0.01405   0.02118   0.02401   0.02600
 Alpha virt. eigenvalues --    0.03238   0.04730   0.05053   0.05586   0.06160

  Beta  occ. eigenvalues --  -19.14769 -19.14710 -19.13079 -10.29782 -10.29345
  Beta  occ. eigenvalues --  -10.28962 -10.23835 -10.23489 -10.23470 -10.21454
  Beta  occ. eigenvalues --  -10.19141 -10.18912  -1.08415  -1.07667  -1.06630
  Beta  occ. eigenvalues --   -0.88211  -0.83219  -0.76384  -0.74189  -0.70833
  Beta  occ. eigenvalues --   -0.65927  -0.60982  -0.56731  -0.54345  -0.51892
  Beta  occ. eigenvalues --   -0.49587  -0.47696  -0.47365  -0.45926  -0.45445
  Beta  occ. eigenvalues --   -0.45049  -0.43695  -0.43584  -0.42286  -0.41609
  Beta  occ. eigenvalues --   -0.41391  -0.39950  -0.38127  -0.32460  -0.30540
  Beta  occ. eigenvalues --   -0.30424  -0.29623  -0.25800
  Beta virt. eigenvalues --   -0.14819  -0.07835  -0.02366  -0.01572  -0.00814
  Beta virt. eigenvalues --    0.00706   0.01405   0.02118   0.02401   0.02600
  Beta virt. eigenvalues --    0.03238   0.04730   0.05053   0.05586   0.06160

 Mulliken charges and spin densities:
               1          2
     1  C   -1.897749   0.000000
     2  C    1.100737   0.000000
     3  C    0.045942  -0.000000
     4  C   -0.309766   0.000000
     5  C   -1.110366   0.000000
     6  C    2.235170  -0.000000
     7  O   -0.139928  -0.000000
     8  O   -0.214951  -0.000000
     9  C   -0.230461   0.000000
    10  C   -0.380894  -0.000000
    11  O   -0.182773  -0.000000
    12  H    0.147083   0.000000
    13  H    0.190218  -0.000000
    14  H    0.190286  -0.000000
    15  H    0.150268  -0.000000
    16  C   -0.346535  -0.000000
    17  H    0.205837   0.000000
    18  H    0.203285  -0.000000
    19  H    0.172273  -0.000000
    20  H    0.172324  -0.000000
 Sum of Mulliken charges =   0.00000   0.00000

 Dipole moment (field-independent basis, Debye):
    X=             -0.2715    Y=             -1.7784    Z=             -0.1910  Tot=              1.8091
 Quadrupole moment (field-independent basis, Debye-Ang):
   XX=            -58.5661   YY=            -96.0217   ZZ=            -65.1342
   XY=              0.5198   XZ=              5.2213   YZ=             -0.3221

  Exact polarizability: 111.861  -3.112 153.337  25.858   0.186  79.197
 Approx polarizability: 141.810 -27.314 316.115  22.258 -10.438 112.510

 ******    3 imaginary frequencies (negative Signs) ******

                      1                      2                      3
                      A                      A                      A
 Frequencies --   -152.4681              -148.6379               -80.8261
 Red. masses --      1.0318                 1.0190                 6.5566
 Frc consts  --      0.0141                 0.0133                 0.0252
 IR Inten    --      0.1066                 0.2476                 1.0354

                      4                      5                      6
                      A                      A                      A
 Frequencies --     19.0000               125.8647               167.8920
 Red. masses --      4.7787                 6.8419                 3.6636
 Frc consts  --      0.0010                 0.0639                 0.0608
 IR Inten    --      8.5577                 7.9853                 0.2791

                      7                      8                      9
                      A                      A                      A
 Frequencies --    195.9418               284.0605               303.9911
 Red. masses --      5.4126                 4.5594                 3.7631
 Frc consts  --      0.1224                 0.2168                 0.2049
 IR Inten    --      6.0502                 0.0274                 1.6116

                     10                     11                     12
                      A                      A                      A
 Frequencies --    346.2509               396.5683               405.6573
 Red. masses --      5.6398                 5.7541                 3.7528
 Frc consts  --      0.3984                 0.5332                 0.3639
 IR Inten    --      0.7919                 2.9990                 1.0260

                     13                     14                     15
                      A                      A                      A
 Frequencies --    420.1787               463.0239               503.6616
 Red. masses --      7.8443                 7.4430                 6.1437
 Frc consts  --      0.8160                 0.9402                 0.9182
 IR Inten    --     13.7949                11.3791                 2.4996

                     16                     17                     18
                      A                      A                      A
 Frequencies --    576.0444               576.5685               649.0489
 Red. masses --      3.6848                 2.8984                 4.3006
 Frc consts  --      0.7204                 0.5677                 1.0674
 IR Inten    --     13.0909                 0.0820                 5.8183

                     19                     20                     21
                      A                      A                      A
 Frequencies --    685.9635               771.7065               792.1908
 Red. masses --      3.1328                 5.3572                 6.0389
 Frc consts  --      0.8685                 1.8797                 2.2329
 IR Inten    --      1.2376                 2.4623                 2.0518

                     22                     23                     24
                      A                      A                      A
 Frequencies --    828.1906               890.7804               910.9414
 Red. masses --      5.7920                 1.3212                 3.3971
 Frc consts  --      2.3407                 0.6177                 1.6609
 IR Inten    --      8.3798                 0.5983                24.1407

                     25                     26                     27
                      A                      A                      A
 Frequencies --    938.3854               994.1402              1030.1905
 Red. masses --      1.5732                 2.5209                 1.4799
 Frc consts  --      0.8162                 1.4679                 0.9254
 IR Inten    --     39.9649                 2.2533                 1.6380

                     28                     29                     30
                      A                      A                      A
 Frequencies --   1035.1407              1050.1274              1101.8414
 Red. masses --      1.7832                 1.5026                 2.4210
 Frc consts  --      1.1257                 0.9763                 1.7317
 IR Inten    --      4.1097                 1.5140                 9.1287

                     31                     32                     33
                      A                      A                      A
 Frequencies --   1189.4325              1207.5679              1310.5424
 Red. masses --      2.6744                 3.0947                 3.3910
 Frc consts  --      2.2292                 2.6588                 3.4315
 IR Inten    --     13.3638               274.9759                62.3996

                     34                     35                     36
                      A                      A                      A
 Frequencies --   1325.2375              1355.4000              1392.7784
 Red. masses --      1.6857                 2.8819                 1.2038
 Frc consts  --      1.7443                 3.1194                 1.3758
 IR Inten    --     22.6715                10.3460                38.9582

                     37                     38                     39
                      A                      A                      A
 Frequencies --   1403.4801              1474.8556              1481.0305
 Red. masses --      1.2278                 1.0447                 1.0825
 Frc consts  --      1.4249                 1.3389                 1.3990
 IR Inten    --     15.3313                 7.2449                14.7755

                     40                     41                     42
                      A                      A                      A
 Frequencies --   1486.4496              1496.8302              1641.0573
 Red. masses --      1.0969                 1.0436                 8.3750
 Frc consts  --      1.4279                 1.3776                13.2888
 IR Inten    --     13.0149                 9.6010                18.9610

                     43                     44                     45
                      A                      A                      A
 Frequencies --   1681.4243              1716.6572              1722.7281
 Red. masses --      9.2675                 8.9874                12.9397
 Frc consts  --     15.4372                15.6045                22.6261
 IR Inten    --     22.1734               219.9534                44.6569

                     46                     47                     48
                      A                      A                      A
 Frequencies --   1774.0120              3038.0477              3052.9217
 Red. masses --     12.5992                 1.0391                 1.0385
 Frc consts  --     23.3619                 5.6509                 5.7029
 IR Inten    --    305.0005                 8.5166                 1.2400

                     49                     50                     51
                      A                      A                      A
 Frequencies --   3088.2339              3109.7314              3144.8963
 Red. masses --      1.1001                 1.0999                 1.0981
 Frc consts  --      6.1816                 6.2670                 6.3986
 IR Inten    --      7.1421                 2.8866                 3.4830

                     52                     53                     54
                      A                      A                      A
 Frequencies --   3154.9283              3168.2247              3212.0681
 Red. masses --      1.0996                 1.0922                 1.0898
 Frc consts  --      6.4487                 6.4593                 6.6248
 IR Inten    --      9.1036                 3.9862                 2.3731

 - Thermochemistry -
 -------------------
 Temperature   298.150 Kelvin.  Pressure   1.00000 Atm.
 Atom     1 has atomic number  6 and mass  12.00000

 Molecular mass:   164.04734 amu.
 Principal axes and moments of inertia in atomic units:
                           1         2         3
     Eigenvalues --  1413.647012213.543213604.88025
           X            0.70795  -0.51497  -0.48334
           Y            0.57969   0.81462  -0.01886
           Z            0.40345  -0.26684   0.87523
 This molecule is an asymmetric top.
 Rotational symmetry number  1.
 Warning -- assumption of classical behavior for rotation
           may cause significant error
 Rotational temperatures (Kelvin)      0.06127     0.03913     0.02403
 Rotational constants (GHZ):           1.27666     0.81532     0.50064
    3 imaginary frequencies ignored.
 Zero-point vibrational energy     389335.9 (Joules/Mol)
                                   93.05352 (Kcal/Mol)
 Warning -- explicit consideration of  14 degrees of freedom as
           vibrations may cause significant error
 Vibrational temperatures:     27.34   181.09   241.56   281.92   408.70
          (Kelvin)            437.38   498.18   570.57   583.65   604.54
                              666.19   724.66   828.80   829.55   933.84
                              986.95  1110.31  1139.79  1191.58  1281.63
                             1310.64  1350.13  1430.35  1482.21  1489.34
                             1510.90  1585.30  1711.33  1737.42  1885.58
                             1906.72  1950.12  2003.90  2019.29  2121.99
                             2130.87  2138.67  2153.60  2361.12  2419.19
                             2469.89  2478.62  2552.41  4371.07  4392.47
                             4443.28  4474.21  4524.80  4539.24  4558.37
                             4621.45

 Zero-point correction=                           0.148290 (Hartree/Particle)
 Thermal correction to Energy=                    0.157753
 Thermal correction to Enthalpy=                  0.158698
 Thermal correction to Gibbs Free Energy=         0.112113
 Sum of electronic and zero-point Energies=           -573.417151
 Sum of electronic and thermal Energies=              -573.407688
 Sum of electronic and thermal Enthalpies=            -573.406744
 Sum of electronic and thermal Free Energies=         -573.453328

                     E (Thermal)             CV                S
                      KCal/Mol        Cal/Mol-Kelvin    Cal/Mol-Kelvin
 Total                   98.992             36.055             98.045
 Electronic               0.000              0.000              0.000
 Translational            0.889              2.981             41.193
 Rotational               0.889              2.981             30.801
 Vibrational             97.214             30.093             26.051
 Vibration     1          0.593              1.986              6.736
 Vibration     2          0.611              1.927              3.008
 Vibration     3          0.625              1.882              2.459
 Vibration     4          0.636              1.846              2.171
 Vibration     5          0.682              1.703              1.509
 Vibration     6          0.695              1.666              1.395
 Vibration     7          0.724              1.583              1.183
 Vibration     8          0.763              1.477              0.975
 Vibration     9          0.771              1.458              0.942
 Vibration    10          0.783              1.426              0.891
 Vibration    11          0.821              1.332              0.757
 Vibration    12          0.859              1.242              0.649
 Vibration    13          0.932              1.083              0.493
 Vibration    14          0.933              1.082              0.492

                           ! Non-Optimized Parameters !
 Normal termination of Gaussian 16 at Sun Dec 17 21:23:02 2023.
