 Gaussian 16, Revision A.03,
 Gaussian 16:  ES64L-G16RevA.03 25-Dec-2016

 ----------------------------------------------------------------
 #P UB3LYP/6-311++G(d,p) SCRF=(PCM,Solvent=n,n-DiMethylFormamide)
 ----------------------------------------------------------------

 ------------------
 Radical PCM in DMF
 ------------------
 Symbolic Z-matrix:
 Charge = -1 Multiplicity = 2

                         Standard orientation:
 ---------------------------------------------------------------------
 Center     Atomic      Atomic             Coordinates (Angstroms)
 Number     Number       Type             X           Y           Z
 ---------------------------------------------------------------------
      1         17           0       -2.716651   -1.601892   -0.000007
      2          6           0       -1.225197   -0.685451    0.000018
      3          6           0       -1.224577    0.685539    0.000008
      4         17           0       -2.716605    1.602202   -0.000004
      5          6           0        0.000196    1.481062    0.000000
      6          8           0        0.000357    2.725366   -0.000001
      7          6           0        1.224959    0.685484   -0.000005
      8          6           0        1.224558   -0.685586    0.000003
      9         17           0        2.716612   -1.602254   -0.000007
     10          6           0       -0.000193   -1.481134    0.000029
     11          8           0       -0.000382   -2.725365   -0.000003
     12         17           0        2.716746    1.601974    0.000001
 ---------------------------------------------------------------------

 SCF Done:  E(UB3LYP) =  -2220.21172192     A.U. after   24 cycles

 The electronic state is 2-A.
 Alpha  occ. eigenvalues -- -101.56318-101.56316-101.56313-101.56312 -19.10350
 Alpha  occ. eigenvalues --  -19.10348 -10.25981 -10.25978 -10.24962 -10.24959
 Alpha  occ. eigenvalues --  -10.24898 -10.24898  -9.47765  -9.47762  -9.47758
 Alpha  occ. eigenvalues --   -9.47757  -7.24229  -7.24226  -7.24222  -7.24222
 Alpha  occ. eigenvalues --   -7.23282  -7.23280  -7.23276  -7.23275  -7.23181
 Alpha  occ. eigenvalues --   -7.23178  -7.23174  -7.23174  -1.03828  -1.03497
 Alpha  occ. eigenvalues --   -0.91278  -0.90109  -0.85877  -0.85672  -0.80720
 Alpha  occ. eigenvalues --   -0.72425  -0.70141  -0.60183  -0.59762  -0.53702
 Alpha  occ. eigenvalues --   -0.49239  -0.46751  -0.45957  -0.45061  -0.43629
 Alpha  occ. eigenvalues --   -0.42561  -0.41604  -0.41334  -0.39386  -0.35717
 Alpha  occ. eigenvalues --   -0.34785  -0.34071  -0.33855  -0.33175  -0.31842
 Alpha  occ. eigenvalues --   -0.31152  -0.28832  -0.27519  -0.26825  -0.25477
 Alpha  occ. eigenvalues --   -0.18541
 Alpha virt. eigenvalues --   -0.03577  -0.02993   0.00095   0.00505   0.01288
 Alpha virt. eigenvalues --    0.01696   0.03450   0.03557   0.04024   0.04899
 Alpha virt. eigenvalues --    0.05473   0.05727   0.07031   0.07154   0.08508

  Beta  occ. eigenvalues -- -101.56313-101.56311-101.56308-101.56307 -19.09669
  Beta  occ. eigenvalues --  -19.09667 -10.25861 -10.25859 -10.24842 -10.24839
  Beta  occ. eigenvalues --  -10.24777 -10.24777  -9.47760  -9.47758  -9.47754
  Beta  occ. eigenvalues --   -9.47753  -7.24232  -7.24230  -7.24226  -7.24225
  Beta  occ. eigenvalues --   -7.23259  -7.23256  -7.23252  -7.23252  -7.23178
  Beta  occ. eigenvalues --   -7.23176  -7.23172  -7.23172  -1.02705  -1.02326
  Beta  occ. eigenvalues --   -0.90906  -0.89984  -0.85792  -0.85507  -0.80370
  Beta  occ. eigenvalues --   -0.72231  -0.69144  -0.59780  -0.59342  -0.53483
  Beta  occ. eigenvalues --   -0.48914  -0.46491  -0.44986  -0.44527  -0.42938
  Beta  occ. eigenvalues --   -0.42075  -0.41450  -0.39007  -0.38982  -0.34595
  Beta  occ. eigenvalues --   -0.34078  -0.33995  -0.33132  -0.33032  -0.31820
  Beta  occ. eigenvalues --   -0.31084  -0.26879  -0.26542  -0.26203  -0.24851
  Beta virt. eigenvalues --   -0.11557  -0.02855  -0.02016   0.00158   0.01340
  Beta virt. eigenvalues --    0.01793   0.03052   0.03489   0.03580   0.04161
  Beta virt. eigenvalues --    0.04959   0.05514   0.05791   0.07146   0.07159

 Mulliken charges and spin densities:
               1          2
     1  Cl   0.335486   0.006435
     2  C    0.214258   0.072906
     3  C    0.220240   0.072703
     4  Cl   0.334857   0.006394
     5  C   -1.249702   0.094126
     6  O   -0.353937   0.247402
     7  C    0.214058   0.072880
     8  C    0.218582   0.072943
     9  Cl   0.334926   0.006416
    10  C   -1.250352   0.094052
    11  O   -0.353820   0.247322
    12  Cl   0.335405   0.006420
 Sum of Mulliken charges =  -1.00000   1.00000

 Dipole moment (field-independent basis, Debye):
    X=             -0.0018    Y=             -0.0025    Z=              0.0000  Tot=              0.0031
 Quadrupole moment (field-independent basis, Debye-Ang):
   XX=           -109.8719   YY=           -136.4505   ZZ=            -97.1111
   XY=              0.0123   XZ=              0.0000   YZ=             -0.0000

 Normal termination of Gaussian 16 at Sun Jan 21 07:18:40 2024.
