 Q-Chem 5.4, Q-Chem, Inc., Pleasanton, CA (2021)
 Q-Chem 5.4.0 for Intel X86 EM64T Linux

User input:
--------------------------------------------------------------
$molecule
0 1
C                 -3.9477040000      0.9599470000      0.9304890000
C                 -3.2888200000     -0.0739300000     -0.0130980000
C                 -3.4756110000     -1.4741360000      0.5984770000
C                 -4.0009690000     -0.0447800000     -1.3861810000
C                 -1.8066010000      0.2857480000     -0.2031800000
C                 -1.4509110000      1.5334750000     -0.7506060000
C                 -0.1264840000      1.8967590000     -0.9381360000
C                  0.9045730000      1.0210280000     -0.5837300000
C                  2.3201160000      1.4307940000     -0.7930820000
O                  2.6051080000      2.5185870000     -1.2689700000
C                  3.3811640000      0.4572440000     -0.3974060000
C                  4.7234220000      0.8045020000     -0.5779660000
C                  5.7298010000     -0.0839800000     -0.2179420000
C                  5.4037920000     -1.3293340000      0.3265130000
C                  4.0722770000     -1.6831080000      0.5097200000
C                  3.0529560000     -0.7957030000      0.1505470000
C                  1.6312750000     -1.2023100000      0.3589020000
O                  1.3490010000     -2.2905160000      0.8348200000
C                  0.5728630000     -0.2277410000     -0.0369460000
C                 -0.7690640000     -0.5791590000      0.1460890000
H                 -5.0046100000      0.7167490000      1.0741730000
H                 -3.4632280000      0.9594020000      1.9106830000
H                 -3.8918990000      1.9744690000      0.5291070000
H                 -3.0543730000     -2.2570930000     -0.0375980000
H                 -4.5426030000     -1.6818710000      0.7137730000
H                 -3.0159310000     -1.5525520000      1.5872170000
H                 -3.9467040000      0.9406760000     -1.8545570000
H                 -5.0583990000     -0.2981730000     -1.2658310000
H                 -3.5548560000     -0.7685320000     -2.0736790000
H                 -2.2250140000      2.2360770000     -1.0363220000
H                  0.1341260000      2.8597240000     -1.3600430000
H                  4.9526290000      1.7745140000     -1.0015420000
H                  6.7690520000      0.1901070000     -0.3599780000
H                  6.1902140000     -2.0210060000      0.6066280000
H                  3.7968320000     -2.6425300000      0.9298010000
H                 -0.9654170000     -1.5533500000      0.5713400000
$end

$rem
BASIS  =  6-311++G(d,p)
GUI  =  2
JOB_TYPE  =  SP
METHOD  =  B3LYP
SCF_CONVERGENCE  = 8
SOLVENT_METHOD = sm12
$end

$smx
solvent dimethylformamide
charges CM5
$end

--------------------------------------------------------------

             Standard Nuclear Orientation (Angstroms)
    I     Atom           X                Y                Z
 ----------------------------------------------------------------
    1      C      -3.9477040000     0.9599470000     0.9304890000
    2      C      -3.2888200000    -0.0739300000    -0.0130980000
    3      C      -3.4756110000    -1.4741360000     0.5984770000
    4      C      -4.0009690000    -0.0447800000    -1.3861810000
    5      C      -1.8066010000     0.2857480000    -0.2031800000
    6      C      -1.4509110000     1.5334750000    -0.7506060000
    7      C      -0.1264840000     1.8967590000    -0.9381360000
    8      C       0.9045730000     1.0210280000    -0.5837300000
    9      C       2.3201160000     1.4307940000    -0.7930820000
   10      O       2.6051080000     2.5185870000    -1.2689700000
   11      C       3.3811640000     0.4572440000    -0.3974060000
   12      C       4.7234220000     0.8045020000    -0.5779660000
   13      C       5.7298010000    -0.0839800000    -0.2179420000
   14      C       5.4037920000    -1.3293340000     0.3265130000
   15      C       4.0722770000    -1.6831080000     0.5097200000
   16      C       3.0529560000    -0.7957030000     0.1505470000
   17      C       1.6312750000    -1.2023100000     0.3589020000
   18      O       1.3490010000    -2.2905160000     0.8348200000
   19      C       0.5728630000    -0.2277410000    -0.0369460000
   20      C      -0.7690640000    -0.5791590000     0.1460890000
   21      H      -5.0046100000     0.7167490000     1.0741730000
   22      H      -3.4632280000     0.9594020000     1.9106830000
   23      H      -3.8918990000     1.9744690000     0.5291070000
   24      H      -3.0543730000    -2.2570930000    -0.0375980000
   25      H      -4.5426030000    -1.6818710000     0.7137730000
   26      H      -3.0159310000    -1.5525520000     1.5872170000
   27      H      -3.9467040000     0.9406760000    -1.8545570000
   28      H      -5.0583990000    -0.2981730000    -1.2658310000
   29      H      -3.5548560000    -0.7685320000    -2.0736790000
   30      H      -2.2250140000     2.2360770000    -1.0363220000
   31      H       0.1341260000     2.8597240000    -1.3600430000
   32      H       4.9526290000     1.7745140000    -1.0015420000
   33      H       6.7690520000     0.1901070000    -0.3599780000
   34      H       6.1902140000    -2.0210060000     0.6066280000
   35      H       3.7968320000    -2.6425300000     0.9298010000
   36      H      -0.9654170000    -1.5533500000     0.5713400000
 ----------------------------------------------------------------

   14    -846.2500510437      9.83e-09  Convergence criterion met
 Total energy in the final basis set =     -846.2704939945

                    Orbital Energies (a.u.)
 --------------------------------------------------------------

 Alpha MOs
 -- Occupied --
-19.1287 -19.1276 -10.2806 -10.2799 -10.2084 -10.2079 -10.2070 -10.2050
-10.2044 -10.1986 -10.1979 -10.1974 -10.1968 -10.1967 -10.1957 -10.1946
-10.1925 -10.1617 -10.1617 -10.1593  -1.0634  -1.0614  -0.8941  -0.8835
 -0.8360  -0.8015  -0.7780  -0.7746  -0.7601  -0.6951  -0.6900  -0.6855
 -0.6652  -0.6427  -0.6164  -0.5860  -0.5778  -0.5594  -0.5326  -0.5031
 -0.4905  -0.4855  -0.4789  -0.4557  -0.4547  -0.4528  -0.4500  -0.4478
 -0.4439  -0.4422  -0.4283  -0.4174  -0.4107  -0.4029  -0.3858  -0.3842
 -0.3819  -0.3758  -0.3700  -0.3661  -0.3634  -0.3388  -0.3386  -0.3292
 -0.2863  -0.2855  -0.2790  -0.2755  -0.2727  -0.2684

          Ground-State Mulliken Net Atomic Charges

     Atom                 Charge (a.u.)
  ----------------------------------------
      1 C                    -0.512879
      2 C                     1.409612
      3 C                    -0.397658
      4 C                    -0.511892
      5 C                     0.327578
      6 C                     0.203590
      7 C                     0.118584
      8 C                    -0.917598
      9 C                    -1.947297
     10 O                    -0.252296
     11 C                    -0.536698
     12 C                     0.213178
     13 C                     0.519030
     14 C                     0.397317
     15 C                     0.183582
     16 C                    -0.016872
     17 C                    -1.334071
     18 O                    -0.247281
     19 C                     0.118728
     20 C                    -0.018251
     21 H                     0.199999
     22 H                     0.127590
     23 H                     0.161134
     24 H                     0.134834
     25 H                     0.217616
     26 H                     0.135020
     27 H                     0.161372
     28 H                     0.199566
     29 H                     0.127551
     30 H                     0.327225
     31 H                     0.226612
     32 H                     0.191621
     33 H                     0.331310
     34 H                     0.331583
     35 H                     0.192908
     36 H                     0.135653
  ----------------------------------------
  Sum of atomic charges =     0.000000

                    Cartesian Multipole Moments
 -----------------------------------------------------------------
    Charge (ESU x 10^10)
                 0.0000
    Dipole Moment (Debye)
         X      -0.9831      Y      -0.2375      Z       0.1239
       Tot       1.0189
    Quadrupole Moments (Debye-Ang)
        XX     -86.7413     XY      -8.8055     YY    -126.9301
        XZ       3.1184     YZ       2.8234     ZZ    -122.2204

 Total job time:  1056.30s(wall), 8309.70s(cpu)
        *  Thank you very much for using Q-Chem.  Have a nice day.  *
