 Q-Chem 5.4, Q-Chem, Inc., Pleasanton, CA (2021)
 Q-Chem 5.4.0 for Intel X86 EM64T Linux

User input:
--------------------------------------------------------------
$molecule
0 1
O                  0.0511760000     -2.1164010000     -1.4741680000
C                  0.0267900000     -1.1134560000     -0.7728640000
C                  1.3282650000     -0.5681610000     -0.2683820000
C                  2.3574340000     -1.5214090000     -0.1656140000
C                  3.6344950000     -1.1758740000      0.2433100000
C                  3.9272880000      0.1610320000      0.5271410000
C                  2.9338660000      1.1166240000      0.4121230000
C                  1.6121080000      0.7842250000      0.0392970000
C                  0.6716160000      1.8882200000     -0.0221680000
C                 -0.6761460000      1.8855800000     -0.0651720000
C                 -1.6143340000      0.7779060000     -0.0635990000
C                 -2.9584000000      1.1050930000      0.2244340000
C                 -3.9534390000      0.1456640000      0.2759800000
C                 -3.6380670000     -1.1900070000      0.0111570000
C                 -2.3362540000     -1.5305070000     -0.3156820000
C                 -1.3062910000     -0.5733000000     -0.3526150000
H                  2.1224180000     -2.5449060000     -0.4268270000
H                  4.4021720000     -1.9363100000      0.3277690000
H                  4.9263650000      0.4516200000      0.8318270000
H                  3.1634230000      2.1556830000      0.6218020000
H                  1.1395920000      2.8670350000      0.0322960000
H                 -1.1504950000      2.8625370000     -0.0408050000
H                 -3.2048160000      2.1431980000      0.4191840000
H                 -4.9709670000      0.4323300000      0.5165810000
H                 -4.4066410000     -1.9534030000      0.0464930000
H                 -2.0811570000     -2.5530120000     -0.5614970000
$end
$rem
MAX_SCF_CYCLES=200
BASIS  =  6-311++G(d,p)
GUI  =  2
JOB_TYPE  =  SP
METHOD  =  B3LYP
SOLVENT_METHOD = PCM
$end
$pcm
theory = CPCM
$end
$solvent
dielectric 37.219
opticaldielectric 1.43
$end

--------------------------------------------------------------

             Standard Nuclear Orientation (Angstroms)
    I     Atom           X                Y                Z
 ----------------------------------------------------------------
    1      O       0.0511760000    -2.1164010000    -1.4741680000
    2      C       0.0267900000    -1.1134560000    -0.7728640000
    3      C       1.3282650000    -0.5681610000    -0.2683820000
    4      C       2.3574340000    -1.5214090000    -0.1656140000
    5      C       3.6344950000    -1.1758740000     0.2433100000
    6      C       3.9272880000     0.1610320000     0.5271410000
    7      C       2.9338660000     1.1166240000     0.4121230000
    8      C       1.6121080000     0.7842250000     0.0392970000
    9      C       0.6716160000     1.8882200000    -0.0221680000
   10      C      -0.6761460000     1.8855800000    -0.0651720000
   11      C      -1.6143340000     0.7779060000    -0.0635990000
   12      C      -2.9584000000     1.1050930000     0.2244340000
   13      C      -3.9534390000     0.1456640000     0.2759800000
   14      C      -3.6380670000    -1.1900070000     0.0111570000
   15      C      -2.3362540000    -1.5305070000    -0.3156820000
   16      C      -1.3062910000    -0.5733000000    -0.3526150000
   17      H       2.1224180000    -2.5449060000    -0.4268270000
   18      H       4.4021720000    -1.9363100000     0.3277690000
   19      H       4.9263650000     0.4516200000     0.8318270000
   20      H       3.1634230000     2.1556830000     0.6218020000
   21      H       1.1395920000     2.8670350000     0.0322960000
   22      H      -1.1504950000     2.8625370000    -0.0408050000
   23      H      -3.2048160000     2.1431980000     0.4191840000
   24      H      -4.9709670000     0.4323300000     0.5165810000
   25      H      -4.4066410000    -1.9534030000     0.0464930000
   26      H      -2.0811570000    -2.5530120000    -0.5614970000
 ----------------------------------------------------------------

    8    -653.0170240196      8.76e-06  Convergence criterion met
 Total energy in the final basis set =     -653.0170240196

                    Orbital Energies (a.u.)
 --------------------------------------------------------------

 Alpha MOs
 -- Occupied --
-19.1187 -10.2763 -10.2078 -10.2078 -10.2017 -10.2017 -10.1903 -10.1896
-10.1885 -10.1885 -10.1874 -10.1874 -10.1868 -10.1868 -10.1857 -10.1857
 -1.0573  -0.8858  -0.8753  -0.8187  -0.7805  -0.7775  -0.7670  -0.7354
 -0.6647  -0.6582  -0.6170  -0.6124  -0.5809  -0.5712  -0.5181  -0.5056
 -0.4962  -0.4826  -0.4711  -0.4501  -0.4472  -0.4431  -0.4380  -0.4338
 -0.4126  -0.3949  -0.3883  -0.3833  -0.3681  -0.3667  -0.3590  -0.3490
 -0.3287  -0.2845  -0.2782  -0.2748  -0.2630  -0.2310

          Ground-State Mulliken Net Atomic Charges

     Atom                 Charge (a.u.)
  ----------------------------------------
      1 O                    -0.313950
      2 C                    -0.620018
      3 C                     0.726944
      4 C                    -0.029450
      5 C                    -0.540857
      6 C                    -0.339635
      7 C                    -0.220547
      8 C                     0.162802
      9 C                    -0.333254
     10 C                    -0.333210
     11 C                     0.163244
     12 C                    -0.221167
     13 C                    -0.340875
     14 C                    -0.539794
     15 C                    -0.032194
     16 C                     0.733285
     17 H                     0.208995
     18 H                     0.215817
     19 H                     0.212009
     20 H                     0.192472
     21 H                     0.209910
     22 H                     0.209881
     23 H                     0.192550
     24 H                     0.211969
     25 H                     0.215901
     26 H                     0.209174
  ----------------------------------------
  Sum of atomic charges =     0.000000

                    Cartesian Multipole Moments
 -----------------------------------------------------------------
    Charge (ESU x 10^10)
                 0.0000
    Dipole Moment (Debye)
         X      -0.0981      Y       3.7595      Z       2.8433
       Tot       4.7146
    Quadrupole Moments (Debye-Ang)
        XX     -67.7644     XY       0.1685     YY     -86.6050
        XZ       1.1177     YZ      -4.0650     ZZ    -102.5444

 Total job time:  37.29s(wall), 267.56s(cpu)
        *  Thank you very much for using Q-Chem.  Have a nice day.  *
