 Q-Chem 5.4, Q-Chem, Inc., Pleasanton, CA (2021)
 Q-Chem 5.4.0 for Intel X86 EM64T Linux

User input:
--------------------------------------------------------------
$molecule
-1 1
C                 -1.7098730000      1.8851080000     -5.1574730000
C                 -1.5978080000      0.5556200000     -5.5446890000
C                 -1.2445380000     -0.4219640000     -4.6082910000
C                 -1.4704870000      2.2581640000     -3.8296070000
C                 -1.1168700000      1.2770730000     -2.8928690000
C                 -1.0058520000     -0.0608170000     -3.2888990000
C                 -1.5985170000      3.7033170000     -3.4485580000
C                 -0.8595790000      1.6462730000     -1.4713340000
C                 -1.3350190000      4.0756520000     -2.0683210000
C                 -0.9865990000      3.0793920000     -1.1050490000
C                 -1.4436890000      5.4459710000     -1.6484870000
C                 -1.1682190000      5.7624080000     -0.2754530000
C                 -0.8548660000      4.7655180000      0.6182050000
C                 -0.7627580000      3.4250390000      0.2162560000
O                 -1.9234380000      4.5111630000     -4.3339230000
O                 -0.5597060000      0.7825640000     -0.6536260000
N                 -1.7956430000      6.4242990000     -2.4989120000
H                 -1.9814180000      2.6599810000     -5.8634280000
H                 -1.7848110000      0.2756360000     -6.5761230000
H                 -1.1573570000     -1.4597260000     -4.9121460000
H                 -0.7311560000     -0.7943070000     -2.5405760000
S                 -1.1031970000      7.5012780000      0.3153570000
H                 -0.6764710000      5.0488470000      1.6489730000
H                 -2.0119430000      6.1650420000     -3.4516280000
H                 -2.0089680000      7.3378750000     -2.0969440000
H                 -0.5089010000      2.6461950000      0.9234850000
O                 -2.2202610000      8.1727250000     -0.4171090000
O                 -1.3021550000      7.4075330000      1.7762560000
O                  0.2371080000      7.9664020000     -0.1063350000
$end
$rem
MAX_SCF_CYCLES=200
BASIS  =  6-311++G(d,p)
GUI  =  2
JOB_TYPE  =  SP
METHOD  =  B3LYP
SOLVENT_METHOD = COSMO
$end
$solvent
dielectric 37.219
opticaldielectric 1.43
$end

--------------------------------------------------------------

             Standard Nuclear Orientation (Angstroms)
    I     Atom           X                Y                Z
 ----------------------------------------------------------------
    1      C       3.7526438613    -1.6766561439    -0.0240490765
    2      C       5.0763174612    -1.2561715711    -0.0574266435
    3      C       5.3800860540     0.1094452220    -0.0686872287
    4      C       2.7127177571    -0.7397660452    -0.0017961906
    5      C       3.0192367658     0.6280737435    -0.0128877767
    6      C       4.3547737306     1.0456198894    -0.0462140576
    7      C       1.2956826157    -1.2306418348     0.0315141989
    8      C       1.9312471550     1.6473109167     0.0136310163
    9      C       0.2273862162    -0.2448709758     0.0423465928
   10      C       0.5323147999     1.1511372227     0.0441069236
   11      C      -1.1483504473    -0.6597669530     0.0748100943
   12      C      -2.1660797263     0.3528759842     0.0792662710
   13      C      -1.8220444758     1.6839815879     0.0993165499
   14      C      -0.4807233493     2.0932863398     0.0832514532
   15      O       1.1059940299    -2.4577605212     0.0475756151
   16      O       2.2051121458     2.8429535540     0.0133537029
   17      N      -1.4995124292    -1.9559338753     0.1040769074
   18      H       3.4919675338    -2.7276108515    -0.0151400958
   19      H       5.8758979569    -1.9893724475    -0.0748841418
   20      H       6.4141880946     0.4362915040    -0.0948183205
   21      H       4.5576280567     2.1096909804    -0.0536719848
   22      S      -3.9476172454    -0.0748503562    -0.0626049356
   23      H      -2.6238901616     2.4126723392     0.1245366463
   24      H      -0.7595097401    -2.6439630536     0.1301446767
   25      H      -2.4801327556    -2.1698211990     0.2893953482
   26      H      -0.2170394514     3.1428599341     0.0922115606
   27      O      -4.0894913562    -1.3083043154     0.7702471295
   28      O      -4.6590784768     1.1051737769     0.4702780352
   29      O      -4.1365234818    -0.3201560786    -1.5099202114
 ----------------------------------------------------------------

    9   -1367.7328052713      7.75e-06  Convergence criterion met
 Total energy in the final basis set =    -1367.7328052713
    5   -1367.8251609626      6.07e-06  Convergence criterion met
 Total energy in the final basis set =    -1367.8251609626

                    Orbital Energies (a.u.)
 --------------------------------------------------------------

 Alpha MOs
 -- Occupied --
-89.0619 -19.1270 -19.1222 -19.1075 -19.1064 -19.1055 -14.3272 -10.2797
-10.2758 -10.2537 -10.2114 -10.2068 -10.2028 -10.2015 -10.2011 -10.1987
-10.1924 -10.1918 -10.1911 -10.1900 -10.1870  -8.1206  -6.0834  -6.0832
 -6.0824  -1.1276  -1.0599  -1.0534  -0.9942  -0.9900  -0.9450  -0.8852
 -0.8666  -0.8116  -0.7722  -0.7712  -0.7559  -0.6917  -0.6700  -0.6500
 -0.6202  -0.6019  -0.5853  -0.5721  -0.5485  -0.5242  -0.5082  -0.5061
 -0.4959  -0.4768  -0.4701  -0.4661  -0.4623  -0.4542  -0.4522  -0.4506
 -0.4442  -0.4298  -0.4171  -0.4114  -0.4020  -0.3878  -0.3763  -0.3711
 -0.3617  -0.3529  -0.3511  -0.3339  -0.3219  -0.3154  -0.3037  -0.2848
 -0.2841  -0.2749  -0.2731  -0.2707  -0.2693  -0.2258

          Ground-State Mulliken Net Atomic Charges

     Atom                 Charge (a.u.)
  ----------------------------------------
      1 C                     0.227387
      2 C                    -0.516640
      3 C                    -0.451345
      4 C                     0.128587
      5 C                     0.026272
      6 C                     0.162504
      7 C                    -0.422633
      8 C                    -0.486394
      9 C                     0.229139
     10 C                     0.564983
     11 C                     0.441925
     12 C                    -1.079388
     13 C                    -0.189930
     14 C                    -0.013452
     15 O                    -0.341188
     16 O                    -0.305547
     17 N                    -0.468552
     18 H                     0.199639
     19 H                     0.224723
     20 H                     0.224488
     21 H                     0.194705
     22 S                     0.633984
     23 H                     0.254504
     24 H                     0.368201
     25 H                     0.327836
     26 H                     0.195035
     27 O                    -0.432786
     28 O                    -0.340603
     29 O                    -0.355463
  ----------------------------------------
  Sum of atomic charges =    -1.000009

                    Cartesian Multipole Moments
 -----------------------------------------------------------------
    Charge (ESU x 10^10)
                -4.8032
    Dipole Moment (Debye)
         X      20.0343      Y      -0.4826      Z       0.9195
       Tot      20.0612
    Quadrupole Moments (Debye-Ang)
        XX    -200.1794     XY      -9.8004     YY    -144.1601
        XZ      -3.2881     YZ      -0.7764     ZZ    -140.7281

 Total job time:  85.52s(wall), 622.04s(cpu)
        *  Thank you very much for using Q-Chem.  Have a nice day.  *
