 Q-Chem 5.4, Q-Chem, Inc., Pleasanton, CA (2021)
 Q-Chem 5.4.0 for Intel X86 EM64T Linux

User input:
--------------------------------------------------------------
$molecule
-1 2
N                 -4.5278940000     -0.9334030000     -0.7758020000
C                 -3.2440470000     -0.6647050000     -0.2384180000
C                 -3.0494330000     -0.7365530000      1.1632230000
C                 -1.7969290000     -0.5222910000      1.6981900000
C                 -0.6811770000     -0.2376070000      0.8836710000
C                  0.6253570000     -0.0180710000      1.5047030000
O                  0.7914630000     -0.0754120000      2.7481120000
C                  1.7294710000      0.2740560000      0.5861980000
C                  3.0210440000      0.4967860000      1.1101490000
C                  4.0923940000      0.7766820000      0.2848600000
C                  3.9015310000      0.8438540000     -1.1138640000
C                  2.6480070000      0.6301450000     -1.6501060000
C                  1.5355540000      0.3416800000     -0.8262470000
C                  0.2283530000      0.1237070000     -1.4424650000
O                  0.0562360000      0.1877520000     -2.6893580000
C                 -0.8730280000     -0.1722000000     -0.5262500000
C                 -2.1639590000     -0.3878420000     -1.0558340000
H                 -5.2834190000     -0.6085250000     -0.1860660000
H                 -4.6419490000     -0.5776030000     -1.7159200000
H                 -3.8920560000     -0.9686750000      1.8096490000
H                 -1.6321000000     -0.5698200000      2.7687270000
H                  3.1360680000      0.4388660000      2.1866560000
H                  5.0786550000      0.9447620000      0.7075440000
H                  4.7423810000      1.0636880000     -1.7656160000
H                  2.4744260000      0.6758890000     -2.7191870000
H                 -2.2749490000     -0.3251580000     -2.1338750000
$end

$rem
BASIS  =  6-311++G(d,p)
GUI  =  2
JOB_TYPE  =  SP
METHOD  =  B3LYP
SCF_CONVERGENCE  = 8
SOLVENT_METHOD = sm12
$end

$smx
solvent dimethylformamide
charges CM5
$end

--------------------------------------------------------------

             Standard Nuclear Orientation (Angstroms)
    I     Atom           X                Y                Z
 ----------------------------------------------------------------
    1      N      -4.5278940000    -0.9334030000    -0.7758020000
    2      C      -3.2440470000    -0.6647050000    -0.2384180000
    3      C      -3.0494330000    -0.7365530000     1.1632230000
    4      C      -1.7969290000    -0.5222910000     1.6981900000
    5      C      -0.6811770000    -0.2376070000     0.8836710000
    6      C       0.6253570000    -0.0180710000     1.5047030000
    7      O       0.7914630000    -0.0754120000     2.7481120000
    8      C       1.7294710000     0.2740560000     0.5861980000
    9      C       3.0210440000     0.4967860000     1.1101490000
   10      C       4.0923940000     0.7766820000     0.2848600000
   11      C       3.9015310000     0.8438540000    -1.1138640000
   12      C       2.6480070000     0.6301450000    -1.6501060000
   13      C       1.5355540000     0.3416800000    -0.8262470000
   14      C       0.2283530000     0.1237070000    -1.4424650000
   15      O       0.0562360000     0.1877520000    -2.6893580000
   16      C      -0.8730280000    -0.1722000000    -0.5262500000
   17      C      -2.1639590000    -0.3878420000    -1.0558340000
   18      H      -5.2834190000    -0.6085250000    -0.1860660000
   19      H      -4.6419490000    -0.5776030000    -1.7159200000
   20      H      -3.8920560000    -0.9686750000     1.8096490000
   21      H      -1.6321000000    -0.5698200000     2.7687270000
   22      H       3.1360680000     0.4388660000     2.1866560000
   23      H       5.0786550000     0.9447620000     0.7075440000
   24      H       4.7423810000     1.0636880000    -1.7656160000
   25      H       2.4744260000     0.6758890000    -2.7191870000
   26      H      -2.2749490000    -0.3251580000    -2.1338750000
 ----------------------------------------------------------------

   18    -744.3872023444      4.44e-09  Convergence criterion met
 Total energy in the final basis set =     -744.4830800311

                    Orbital Energies (a.u.)
 --------------------------------------------------------------

 Alpha MOs
 -- Occupied --
-19.0764 -19.0748 -14.3209 -10.2273 -10.2222 -10.2199 -10.1819 -10.1809
-10.1802 -10.1794 -10.1788 -10.1785 -10.1784 -10.1777 -10.1775 -10.1723
-10.1689  -1.0027  -0.9986  -0.9206  -0.8634  -0.8466  -0.7849  -0.7574
 -0.7542  -0.7352  -0.6702  -0.6453  -0.6201  -0.5993  -0.5641  -0.5428
 -0.5347  -0.5045  -0.4840  -0.4731  -0.4645  -0.4492  -0.4332  -0.4299
 -0.4264  -0.4171  -0.4112  -0.4042  -0.3938  -0.3837  -0.3796  -0.3592
 -0.3541  -0.3526  -0.3391  -0.3086  -0.2690  -0.2642  -0.2597  -0.2456
 -0.2371  -0.2231  -0.1426

 Beta MOs
 -- Occupied --
-19.0712 -19.0685 -14.3208 -10.2260 -10.2204 -10.2196 -10.1816 -10.1803
-10.1802 -10.1786 -10.1786 -10.1786 -10.1777 -10.1773 -10.1765 -10.1719
-10.1685  -0.9937  -0.9876  -0.9199  -0.8609  -0.8453  -0.7812  -0.7551
 -0.7524  -0.7335  -0.6628  -0.6439  -0.6177  -0.5986  -0.5618  -0.5405
 -0.5337  -0.5039  -0.4822  -0.4707  -0.4633  -0.4483  -0.4328  -0.4295
 -0.4169  -0.4129  -0.4075  -0.4007  -0.3911  -0.3803  -0.3581  -0.3571
 -0.3523  -0.3449  -0.3372  -0.3007  -0.2604  -0.2514  -0.2484  -0.2404
 -0.2316  -0.2167

          Ground-State Mulliken Net Atomic Charges

     Atom                 Charge (a.u.)    Spin (a.u.)
  --------------------------------------------------------
      1 N                    -0.068323       0.007671
      2 C                     1.487113       0.017610
      3 C                     1.625122       0.022604
      4 C                     0.230823       0.017182
      5 C                    -1.034024       0.008931
      6 C                    -2.147018       0.061169
      7 O                    -0.294604       0.194121
      8 C                    -1.128085       0.057387
      9 C                    -0.040534       0.009050
     10 C                     0.983433       0.061065
     11 C                     0.956613       0.027470
     12 C                    -0.077936       0.041741
     13 C                    -0.836888       0.040538
     14 C                    -2.018202       0.096441
     15 O                    -0.302753       0.238204
     16 C                    -0.895985       0.052467
     17 C                     0.084044       0.063196
     18 H                     0.392154       0.000773
     19 H                     0.384096      -0.000176
     20 H                     0.373282      -0.001987
     21 H                     0.162025      -0.001028
     22 H                     0.158934      -0.000316
     23 H                     0.359426      -0.004500
     24 H                     0.360126      -0.002399
     25 H                     0.150758      -0.002563
     26 H                     0.136402      -0.004652
  --------------------------------------------------------
  Sum of atomic charges =    -1.000000

                    Cartesian Multipole Moments
 -----------------------------------------------------------------
    Charge (ESU x 10^10)
                -4.8032
    Dipole Moment (Debye)
         X      -4.4437      Y       0.4638      Z      -0.3248
       Tot       4.4796
    Quadrupole Moments (Debye-Ang)
        XX     -94.1038     XY      -3.7604     YY    -109.3424
        XZ      -2.1895     YZ       0.2951     ZZ    -131.3398

 Total job time:  666.19s(wall), 4942.37s(cpu)
        *  Thank you very much for using Q-Chem.  Have a nice day.  *
