 Q-Chem 5.4, Q-Chem, Inc., Pleasanton, CA (2021)
 Q-Chem 5.4.0 for Intel X86 EM64T Linux

User input:
--------------------------------------------------------------
$molecule
-1 2
C                  4.7372900000      0.2259260000      0.9495670000
C                  3.9497170000     -0.6044050000     -0.0813110000
C                  4.5911080000     -0.4931160000     -1.4772550000
C                  2.4708950000     -0.2464200000     -0.0985240000
C                  2.0291190000      1.0465790000     -0.4560880000
C                  0.6798840000      1.3549570000     -0.4671600000
C                 -0.3117020000      0.4089070000     -0.1271420000
C                  0.1274140000     -0.8908140000      0.2328240000
C                  1.5099000000     -1.1823510000      0.2370320000
C                 -0.8078840000     -1.9591900000      0.6056460000
O                 -0.3909090000     -3.0951470000      0.9187190000
C                 -2.2619430000     -1.6515800000      0.5994070000
O                 -3.0800150000     -2.5433690000      0.9117450000
C                 -2.6991600000     -0.2877340000      0.2206460000
C                 -4.0921630000      0.0524410000      0.2019220000
C                 -5.1963850000     -0.9201910000      0.5554360000
C                 -4.4775290000      1.3385670000     -0.1567150000
C                 -3.5398980000      2.3191060000     -0.5026900000
C                 -2.1955500000      2.0051410000     -0.4889130000
C                 -1.7420970000      0.7188120000     -0.1343590000
H                  4.3073340000      0.1153840000      1.9484370000
H                  4.7201300000      1.2909080000      0.6965240000
H                  5.7857670000     -0.0911620000      0.9895780000
H                  4.0140710000     -1.6544660000      0.2259790000
H                  4.0579270000     -1.1148360000     -2.2011390000
H                  5.6388680000     -0.8142120000     -1.4540360000
H                  4.5661970000      0.5383420000     -1.8432540000
H                  2.7462570000      1.8158710000     -0.7275410000
H                  0.3953140000      2.3612020000     -0.7490780000
H                  1.7881500000     -2.1921180000      0.5203160000
H                 -5.0853830000     -1.3077990000      1.5693290000
H                 -6.1659200000     -0.4174880000      0.4638840000
H                 -5.1836450000     -1.7995060000     -0.0904800000
H                 -5.5359080000      1.5834460000     -0.1669130000
H                 -3.8667330000      3.3168450000     -0.7791360000
H                 -1.4825180000      2.7734720000     -0.7587110000
$end
$rem
MAX_SCF_CYCLES=200
BASIS  =  6-311++G(d,p)
GUI  =  2
JOB_TYPE  =  SP
METHOD  =  B3LYP
SOLVENT_METHOD = COSMO
$end
$solvent
dielectric 37.219
opticaldielectric 1.43
$end

--------------------------------------------------------------

             Standard Nuclear Orientation (Angstroms)
    I     Atom           X                Y                Z
 ----------------------------------------------------------------
    1      C      -5.1037701870    -0.2299493350     1.2665083733
    2      C      -4.3906247044     0.2776007667    -0.0008694969
    3      C      -5.1017826411    -0.2313229252    -1.2688120714
    4      C      -2.9069636310    -0.0602047897     0.0002621378
    5      C      -2.4551838300    -1.3983974032     0.0003145050
    6      C      -1.1017067166    -1.6878007342     0.0005987725
    7      C      -0.1154802234    -0.6772449969     0.0008092134
    8      C      -0.5646316330     0.6680936360     0.0009944455
    9      C      -1.9512813431     0.9391685702     0.0008173129
   10      C       0.3643304407     1.8048589297     0.0010443756
   11      O      -0.0614417918     2.9800179963     0.0016223938
   12      C       1.8226957937     1.5182942852    -0.0002262706
   13      O       2.6354775245     2.4677516634    -0.0012206781
   14      C       2.2704276369     0.1061219570    -0.0000711004
   15      C       3.6679246705    -0.2156369186    -0.0005649681
   16      C       4.7667044726     0.8250232730    -0.0013974671
   17      C       4.0631738391    -1.5479377688    -0.0002839431
   18      C       3.1312880694    -2.5928758361     0.0005352464
   19      C       1.7827045257    -2.2973126366     0.0009744138
   20      C       1.3192610079    -0.9664518534     0.0006006403
   21      H      -4.6245504007     0.1636377754     2.1666531148
   22      H      -5.0756217641    -1.3227371650     1.3259584417
   23      H      -6.1556614374     0.0781304747     1.2743395698
   24      H      -4.4626980642     1.3712194150    -0.0014760733
   25      H      -4.6217147969     0.1619984394    -2.1686225802
   26      H      -6.1539320532     0.0758181827    -1.2782320085
   27      H      -5.0725975652    -1.3241141560    -1.3274379102
   28      H      -3.1678455024    -2.2180906295    -0.0001086022
   29      H      -0.8094461423    -2.7306672611     0.0005127690
   30      H      -2.2372409244     1.9858439727     0.0008504609
   31      H       4.7003187491     1.4847190853     0.8651674710
   32      H       5.7413125882     0.3237955732    -0.0013260138
   33      H       4.6999644796     1.4836938739    -0.8687287007
   34      H       5.1248689727    -1.7782400298    -0.0006625521
   35      H       3.4658375754    -3.6257374625     0.0008654921
   36      H       1.0742071425    -3.1155846875     0.0016286823
 ----------------------------------------------------------------

   11    -846.3022130132      6.11e-06  Convergence criterion met
 Total energy in the final basis set =     -846.3022130132
    5    -846.3920615426      5.70e-06  Convergence criterion met
 Total energy in the final basis set =     -846.3920615426

                    Orbital Energies (a.u.)
 --------------------------------------------------------------

 Alpha MOs
 -- Occupied --
-19.0774 -19.0748 -10.2184 -10.2158 -10.1847 -10.1825 -10.1813 -10.1768
-10.1744 -10.1741 -10.1708 -10.1701 -10.1693 -10.1682 -10.1675 -10.1639
-10.1625 -10.1533 -10.1533 -10.1508  -1.0182  -0.9891  -0.8720  -0.8494
 -0.8070  -0.7716  -0.7695  -0.7486  -0.7166  -0.6942  -0.6794  -0.6622
 -0.6287  -0.6055  -0.5918  -0.5730  -0.5594  -0.5195  -0.4993  -0.4831
 -0.4673  -0.4596  -0.4512  -0.4355  -0.4296  -0.4292  -0.4176  -0.4150
 -0.4109  -0.4107  -0.4001  -0.3963  -0.3885  -0.3823  -0.3717  -0.3715
 -0.3568  -0.3566  -0.3442  -0.3421  -0.3346  -0.3316  -0.3239  -0.3191
 -0.2820  -0.2586  -0.2571  -0.2489  -0.2252  -0.2192  -0.1506

 Beta MOs
 -- Occupied --
-19.0715 -19.0686 -10.2166 -10.2136 -10.1838 -10.1818 -10.1804 -10.1770
-10.1745 -10.1741 -10.1712 -10.1703 -10.1685 -10.1678 -10.1673 -10.1640
-10.1617 -10.1533 -10.1533 -10.1508  -1.0077  -0.9778  -0.8703  -0.8484
 -0.8059  -0.7705  -0.7668  -0.7468  -0.7155  -0.6901  -0.6794  -0.6577
 -0.6278  -0.6031  -0.5889  -0.5717  -0.5579  -0.5183  -0.4971  -0.4819
 -0.4649  -0.4581  -0.4504  -0.4348  -0.4284  -0.4191  -0.4159  -0.4136
 -0.4101  -0.4059  -0.3943  -0.3919  -0.3880  -0.3814  -0.3706  -0.3594
 -0.3557  -0.3511  -0.3434  -0.3362  -0.3341  -0.3234  -0.3188  -0.3134
 -0.2759  -0.2512  -0.2496  -0.2412  -0.2197  -0.2154

          Ground-State Mulliken Net Atomic Charges

     Atom                 Charge (a.u.)    Spin (a.u.)
  --------------------------------------------------------
      1 C                    -0.695613       0.000484
      2 C                     0.125613       0.006988
      3 C                    -0.695105       0.000481
      4 C                     0.662518      -0.027345
      5 C                    -0.796423       0.083026
      6 C                    -0.236053      -0.022475
      7 C                     0.386682       0.053953
      8 C                     0.877317       0.013898
      9 C                    -0.384483       0.072476
     10 C                    -0.713320       0.150343
     11 O                    -0.511880       0.220560
     12 C                    -0.859693       0.104695
     13 O                    -0.458389       0.229016
     14 C                     0.626244      -0.020474
     15 C                     0.515048       0.062394
     16 C                    -0.368451      -0.001024
     17 C                    -0.497913      -0.014740
     18 C                    -0.642114       0.074729
     19 C                    -0.414223      -0.023708
     20 C                     0.490783       0.046814
     21 H                     0.146557       0.000137
     22 H                     0.160893      -0.000239
     23 H                     0.162729      -0.000350
     24 H                     0.201304       0.000017
     25 H                     0.146511       0.000135
     26 H                     0.162682      -0.000349
     27 H                     0.160782      -0.000242
     28 H                     0.205588      -0.005254
     29 H                     0.128143       0.002306
     30 H                     0.162052      -0.006451
     31 H                     0.165323       0.001821
     32 H                     0.152981      -0.000317
     33 H                     0.165026       0.001823
     34 H                     0.137694       0.000051
     35 H                     0.223389      -0.005091
     36 H                     0.107802       0.001914
  --------------------------------------------------------
  Sum of atomic charges =    -1.000001

                    Cartesian Multipole Moments
 -----------------------------------------------------------------
    Charge (ESU x 10^10)
                -4.8032
    Dipole Moment (Debye)
         X      -6.3222      Y     -13.0333      Z      -0.0018
       Tot      14.4857
    Quadrupole Moments (Debye-Ang)
        XX    -127.9646     XY     -14.8130     YY    -155.5694
        XZ       0.0186     YZ      -0.0063     ZZ    -126.4508

 Total job time:  156.82s(wall), 1166.85s(cpu)
        *  Thank you very much for using Q-Chem.  Have a nice day.  *
