 Gaussian 16, Revision A.03,
 Gaussian 16:  ES64L-G16RevA.03 25-Dec-2016

 ----------------------------------------------------------------------
 #P UB3LYP/genecp nosym opt freq SCRF=(PCM,Solvent=n,n-DiMethylFormamid
 e)
 ----------------------------------------------------------------------

 -------
 Reduced
 -------
 Symbolic Z-matrix:
 Charge = -2 Multiplicity = 1

 SCF Done:  E(UB3LYP) =  -797.005418098     A.U. after   17 cycles
 SCF Done:  E(UB3LYP) =  -797.006580348     A.U. after   14 cycles
 SCF Done:  E(UB3LYP) =  -797.006883750     A.U. after   13 cycles
 SCF Done:  E(UB3LYP) =  -797.006959082     A.U. after   13 cycles
 SCF Done:  E(UB3LYP) =  -797.007058543     A.U. after   12 cycles
 SCF Done:  E(UB3LYP) =  -797.007107776     A.U. after   13 cycles
 SCF Done:  E(UB3LYP) =  -797.007116516     A.U. after   13 cycles
 SCF Done:  E(UB3LYP) =  -797.007118730     A.U. after   12 cycles
 SCF Done:  E(UB3LYP) =  -797.007119529     A.U. after   11 cycles
 SCF Done:  E(UB3LYP) =  -797.007119681     A.U. after   11 cycles
 SCF Done:  E(UB3LYP) =  -797.007133267     A.U. after   13 cycles
 SCF Done:  E(UB3LYP) =  -797.007142827     A.U. after   12 cycles
 SCF Done:  E(UB3LYP) =  -797.007143186     A.U. after   11 cycles
 SCF Done:  E(UB3LYP) =  -797.007143086     A.U. after    9 cycles
 SCF Done:  E(UB3LYP) =  -797.007143835     A.U. after   11 cycles
 SCF Done:  E(UB3LYP) =  -797.002493312     A.U. after   14 cycles
 SCF Done:  E(UB3LYP) =  -797.007143966     A.U. after   11 cycles
 SCF Done:  E(UB3LYP) =  -797.007143926     A.U. after    9 cycles
 SCF Done:  E(UB3LYP) =  -797.007144002     A.U. after    9 cycles
 Optimization completed.
    -- Stationary point found.
 Normal termination of Gaussian 16 at Sat Feb 10 11:38:15 2024.

 ------------------------------------------------------------------
 #P Geom=AllCheck Guess=TCheck SCRF=Check GenChk UB3LYP/GenECP Freq
 ------------------------------------------------------------------

 Structure from the checkpoint file:  "006-an.chk"
 -------
 Reduced
 -------
 Charge = -2 Multiplicity = 1

                          Input orientation:
 ---------------------------------------------------------------------
 Center     Atomic      Atomic             Coordinates (Angstroms)
 Number     Number       Type             X           Y           Z
 ---------------------------------------------------------------------
      1          6           0       -1.294910    1.930067    0.768948
      2          6           0       -2.546249    1.453084    0.226476
      3          6           0       -2.627181    0.284576   -0.534308
      4          6           0       -1.518957   -0.555221   -0.848555
      5          6           0       -0.282629   -0.103459   -0.311468
      6          6           0       -0.211151    1.069817    0.447179
      7          8           0       -1.189993    3.026214    1.468652
      8          8           0       -1.626602   -1.650958   -1.566495
      9          1           0        0.610594   -0.689346   -0.502138
     10         53           0        1.722138    1.638805    1.206499
     11          6           0       -3.794717    2.290105    0.487479
     12          6           0       -4.230262    3.073761   -0.766319
     13          6           0       -4.971773    1.473913    1.049878
     14          1           0       -3.596920   -0.021007   -0.923974
     15          1           0       -3.504614    3.023881    1.244011
     16          1           0       -4.520683    2.392818   -1.573691
     17          1           0       -3.416675    3.704002   -1.138006
     18          1           0       -5.087048    3.722381   -0.549639
     19          1           0       -5.330880    0.729889    0.331711
     20          1           0       -5.815163    2.129285    1.294396
     21          1           0       -4.683205    0.942592    1.961925
 ---------------------------------------------------------------------

 SCF Done:  E(UB3LYP) =  -797.007144002     A.U. after    1 cycles

 Alpha  occ. eigenvalues --  -19.01475 -19.01271 -10.17501 -10.16967 -10.16770
 Alpha  occ. eigenvalues --  -10.15081 -10.14355 -10.14335 -10.13371 -10.12678
 Alpha  occ. eigenvalues --  -10.12035  -6.81458  -4.83734  -4.82829  -4.82786
 Alpha  occ. eigenvalues --   -1.88561  -1.88261  -1.88230  -1.87448  -1.87447
 Alpha  occ. eigenvalues --   -0.92608  -0.91668  -0.79748  -0.76844  -0.70674
 Alpha  occ. eigenvalues --   -0.66878  -0.66441  -0.63977  -0.58972  -0.52323
 Alpha  occ. eigenvalues --   -0.51617  -0.44866  -0.43038  -0.42051  -0.41224
 Alpha  occ. eigenvalues --   -0.39548  -0.37342  -0.36331  -0.35446  -0.35261
 Alpha  occ. eigenvalues --   -0.34705  -0.32716  -0.32540  -0.30902  -0.30349
 Alpha  occ. eigenvalues --   -0.29104  -0.26202  -0.24278  -0.21946  -0.20401
 Alpha  occ. eigenvalues --   -0.19493  -0.19235  -0.12141
 Alpha virt. eigenvalues --   -0.00720   0.00088   0.01370   0.01591   0.02039
 Alpha virt. eigenvalues --    0.02271   0.03728   0.04255   0.05000   0.05588
 Alpha virt. eigenvalues --    0.06085   0.06537   0.07144   0.07450   0.08237

  Beta  occ. eigenvalues --  -19.01475 -19.01271 -10.17501 -10.16967 -10.16770
  Beta  occ. eigenvalues --  -10.15081 -10.14355 -10.14335 -10.13371 -10.12678
  Beta  occ. eigenvalues --  -10.12035  -6.81458  -4.83734  -4.82829  -4.82786
  Beta  occ. eigenvalues --   -1.88561  -1.88261  -1.88230  -1.87448  -1.87447
  Beta  occ. eigenvalues --   -0.92608  -0.91668  -0.79748  -0.76844  -0.70674
  Beta  occ. eigenvalues --   -0.66878  -0.66441  -0.63977  -0.58972  -0.52323
  Beta  occ. eigenvalues --   -0.51617  -0.44866  -0.43038  -0.42051  -0.41224
  Beta  occ. eigenvalues --   -0.39548  -0.37342  -0.36331  -0.35446  -0.35261
  Beta  occ. eigenvalues --   -0.34705  -0.32716  -0.32540  -0.30902  -0.30349
  Beta  occ. eigenvalues --   -0.29104  -0.26202  -0.24278  -0.21946  -0.20401
  Beta  occ. eigenvalues --   -0.19493  -0.19235  -0.12141
  Beta virt. eigenvalues --   -0.00720   0.00088   0.01370   0.01591   0.02039
  Beta virt. eigenvalues --    0.02271   0.03728   0.04255   0.05000   0.05588
  Beta virt. eigenvalues --    0.06085   0.06537   0.07144   0.07450   0.08237

 Mulliken charges and spin densities:
               1          2
     1  C   -2.394064   0.000000
     2  C    1.096112  -0.000000
     3  C   -0.257906  -0.000000
     4  C   -0.417625  -0.000000
     5  C   -0.084001  -0.000000
     6  C    1.533158  -0.000000
     7  O   -0.634635  -0.000000
     8  O   -0.743453  -0.000000
     9  H    0.114595  -0.000000
    10  I   -0.270949  -0.000000
    11  C    0.197938   0.000000
    12  C   -0.656137   0.000000
    13  C   -0.627194   0.000000
    14  H    0.122460  -0.000000
    15  H    0.195331  -0.000000
    16  H    0.146924  -0.000000
    17  H    0.140522   0.000000
    18  H    0.131121  -0.000000
    19  H    0.137053  -0.000000
    20  H    0.139863  -0.000000
    21  H    0.130887   0.000000
 Sum of Mulliken charges =  -2.00000   0.00000

 Dipole moment (field-independent basis, Debye):
    X=              9.7168    Y=             -6.7320    Z=             -0.3926  Tot=             11.8276
 Quadrupole moment (field-independent basis, Debye-Ang):
   XX=           -125.3797   YY=           -151.4677   ZZ=           -123.1617
   XY=             -0.5757   XZ=             -6.7764   YZ=            -28.4305

  Exact polarizability: 307.205   1.654 249.790  29.965  49.571 205.952
 Approx polarizability: 317.098   1.658 277.802  29.478  60.893 225.293

                      1                      2                      3
                      A                      A                      A
 Frequencies --     13.7258                67.1910               124.9640
 Red. masses --      2.9824                 5.6366                 5.9633
 Frc consts  --      0.0003                 0.0150                 0.0549
 IR Inten    --      3.3399                13.8751                15.0429

                      4                      5                      6
                      A                      A                      A
 Frequencies --    142.8230               166.1378               190.3613
 Red. masses --      5.4206                 5.6940                 5.7175
 Frc consts  --      0.0651                 0.0926                 0.1221
 IR Inten    --     12.1454                 1.5888                 0.1545

                      7                      8                      9
                      A                      A                      A
 Frequencies --    204.3215               237.7148               259.0603
 Red. masses --      5.1603                 1.0715                 1.1616
 Frc consts  --      0.1269                 0.0357                 0.0459
 IR Inten    --      4.6318                 0.0951                 2.0174

                     10                     11                     12
                      A                      A                      A
 Frequencies --    278.6228               304.4951               371.6887
 Red. masses --      3.4529                 4.4805                 5.5015
 Frc consts  --      0.1579                 0.2448                 0.4478
 IR Inten    --      9.7123                 2.0416                 1.5003

                     13                     14                     15
                      A                      A                      A
 Frequencies --    401.2678               437.3901               481.5378
 Red. masses --      4.7959                 3.2719                 8.9623
 Frc consts  --      0.4550                 0.3688                 1.2244
 IR Inten    --     14.4146                 0.0496                 4.1102

                     16                     17                     18
                      A                      A                      A
 Frequencies --    546.9035               565.0471               614.4005
 Red. masses --      4.8857                 3.6524                 2.1930
 Frc consts  --      0.8610                 0.6871                 0.4877
 IR Inten    --      1.7520                 7.2148                 7.9776

                     19                     20                     21
                      A                      A                      A
 Frequencies --    625.5344               732.8145               752.7779
 Red. masses --      4.8490                 6.6905                 7.3996
 Frc consts  --      1.1179                 2.1169                 2.4705
 IR Inten    --      7.1265               209.2374                10.6449

                     22                     23                     24
                      A                      A                      A
 Frequencies --    809.1217               812.7231               860.8727
 Red. masses --      1.6124                 5.8364                 1.5725
 Frc consts  --      0.6219                 2.2713                 0.6866
 IR Inten    --     35.8938               206.7698                37.5854

                     25                     26                     27
                      A                      A                      A
 Frequencies --    868.0729               926.3569               952.4888
 Red. masses --      2.9416                 1.1947                 1.5433
 Frc consts  --      1.3060                 0.6040                 0.8249
 IR Inten    --     33.1260                 1.4535                 0.6794

                     28                     29                     30
                      A                      A                      A
 Frequencies --    961.4860              1048.3698              1089.3846
 Red. masses --      2.8580                 2.4668                 1.5046
 Frc consts  --      1.5567                 1.5974                 1.0521
 IR Inten    --     11.6200               117.0081                 8.2559

                     31                     32                     33
                      A                      A                      A
 Frequencies --   1114.8066              1145.4534              1185.8664
 Red. masses --      2.4641                 5.2588                 1.9835
 Frc consts  --      1.8043                 4.0653                 1.6434
 IR Inten    --     14.9533               244.9075                33.4102

                     34                     35                     36
                      A                      A                      A
 Frequencies --   1219.7290              1246.8916              1313.3070
 Red. masses --      1.6849                 2.1917                 4.7425
 Frc consts  --      1.4769                 2.0076                 4.8194
 IR Inten    --    152.0969               544.5038                96.9115

                     37                     38                     39
                      A                      A                      A
 Frequencies --   1342.6859              1366.1846              1382.0600
 Red. masses --      2.5035                 1.2667                 1.2314
 Frc consts  --      2.6591                 1.3930                 1.3858
 IR Inten    --    123.8135                 3.9084                10.6035

                     40                     41                     42
                      A                      A                      A
 Frequencies --   1399.8773              1406.3153              1419.7036
 Red. masses --      1.2992                 3.2633                 3.6807
 Frc consts  --      1.5001                 3.8025                 4.3710
 IR Inten    --     65.5381               219.3479              1339.6237

                     43                     44                     45
                      A                      A                      A
 Frequencies --   1459.1987              1476.3468              1481.3828
 Red. masses --      4.9678                 1.0427                 1.0602
 Frc consts  --      6.2322                 1.3391                 1.3708
 IR Inten    --     77.8290                 0.0758                 4.0438

                     46                     47                     48
                      A                      A                      A
 Frequencies --   1489.0736              1494.6095              1596.3583
 Red. masses --      1.0485                 1.0700                 6.8212
 Frc consts  --      1.3698                 1.4083                10.2417
 IR Inten    --     15.2761                 4.5326               110.9939

                     49                     50                     51
                      A                      A                      A
 Frequencies --   2998.9763              3006.9546              3038.0661
 Red. masses --      1.0352                 1.0354                 1.0871
 Frc consts  --      5.4853                 5.5161                 5.9115
 IR Inten    --     78.0134               103.6768                 6.8419

                     52                     53                     54
                      A                      A                      A
 Frequencies --   3056.3458              3064.7115              3070.5842
 Red. masses --      1.1004                 1.0985                 1.1017
 Frc consts  --      6.0565                 6.0790                 6.1202
 IR Inten    --     16.1574               156.4032                50.6268

                     55                     56                     57
                      A                      A                      A
 Frequencies --   3076.7824              3113.1470              3152.5593
 Red. masses --      1.0985                 1.0868                 1.0892
 Frc consts  --      6.1271                 6.2056                 6.3780
 IR Inten    --     85.9131               110.1197                35.2595

 - Thermochemistry -
 -------------------
 Temperature   298.150 Kelvin.  Pressure   1.00000 Atm.
 Atom     1 has atomic number  6 and mass  12.00000

 Molecular mass:   275.96065 amu.
 Principal axes and moments of inertia in atomic units:
                           1         2         3
     Eigenvalues --  1815.815435642.009747079.63403
           X            0.97100  -0.15508  -0.18194
           Y            0.04381   0.86358  -0.50230
           Z            0.23502   0.47976   0.84534
 This molecule is an asymmetric top.
 Rotational symmetry number  1.
 Warning -- assumption of classical behavior for rotation
           may cause significant error
 Rotational temperatures (Kelvin)      0.04770     0.01535     0.01223
 Rotational constants (GHZ):           0.99390     0.31988     0.25492
 Zero-point vibrational energy     406524.8 (Joules/Mol)
                                   97.16175 (Kcal/Mol)
 Warning -- explicit consideration of  18 degrees of freedom as
           vibrations may cause significant error
 Vibrational temperatures:     19.75    96.67   179.80   205.49   239.04
          (Kelvin)            273.89   293.97   342.02   372.73   400.88
                              438.10   534.78   577.33   629.31   692.83
                              786.87   812.98   883.99   900.00  1054.36
                             1083.08  1164.15  1169.33  1238.60  1248.96
                             1332.82  1370.42  1383.36  1508.37  1567.38
                             1603.96  1648.05  1706.20  1754.92  1794.00
                             1889.56  1931.83  1965.63  1988.48  2014.11
                             2023.37  2042.64  2099.46  2124.13  2131.38
                             2142.44  2150.41  2296.80  4314.86  4326.34
                             4371.10  4397.40  4409.44  4417.89  4426.80
                             4479.12  4535.83

 Zero-point correction=                           0.154837 (Hartree/Particle)
 Thermal correction to Energy=                    0.166981
 Thermal correction to Enthalpy=                  0.167925
 Thermal correction to Gibbs Free Energy=         0.113924
 Sum of electronic and zero-point Energies=           -796.852307
 Sum of electronic and thermal Energies=              -796.840163
 Sum of electronic and thermal Enthalpies=            -796.839219
 Sum of electronic and thermal Free Energies=         -796.893220

                     E (Thermal)             CV                S
                      KCal/Mol        Cal/Mol-Kelvin    Cal/Mol-Kelvin
 Total                  104.782             44.307            113.653
 Electronic               0.000              0.000              0.000
 Translational            0.889              2.981             42.744
 Rotational               0.889              2.981             32.650
 Vibrational            103.004             38.345             38.259
 Vibration     1          0.593              1.986              7.382
 Vibration     2          0.598              1.970              4.234
 Vibration     3          0.610              1.928              3.022
 Vibration     4          0.616              1.910              2.766
 Vibration     5          0.624              1.884              2.479
 Vibration     6          0.634              1.853              2.224
 Vibration     7          0.640              1.834              2.094
 Vibration     8          0.656              1.783              1.820
 Vibration     9          0.668              1.747              1.668
 Vibration    10          0.679              1.713              1.542
 Vibration    11          0.695              1.665              1.392
 Vibration    12          0.743              1.530              1.073
 Vibration    13          0.767              1.467              0.958
 Vibration    14          0.798              1.389              0.835
 Vibration    15          0.838              1.291              0.706
 Vibration    16          0.902              1.146              0.551
 Vibration    17          0.921              1.107              0.514
 Vibration    18          0.974              1.001              0.426

 Optimization completed.
    -- Stationary point found.
 Normal termination of Gaussian 16 at Sat Feb 10 12:00:58 2024.
