 Gaussian 16, Revision A.03,
 Gaussian 16:  ES64L-G16RevA.03 25-Dec-2016

 ----------------------------------------------------------------
 #P UB3LYP/6-311++G(d,p) SCRF=(PCM,Solvent=n,n-DiMethylFormamide)
 ----------------------------------------------------------------

 -------
 Reduced
 -------
 Symbolic Z-matrix:
 Charge = -2 Multiplicity = 1

                         Standard orientation:
 ---------------------------------------------------------------------
 Center     Atomic      Atomic             Coordinates (Angstroms)
 Number     Number       Type             X           Y           Z
 ---------------------------------------------------------------------
      1          6           0        4.357366    0.365464   -0.657388
      2          6           0        5.089735   -0.801047   -0.757355
      3          6           0        4.491025   -2.044314   -0.430163
      4          6           0        3.003600    0.359888   -0.231279
      5          6           0        2.391883   -0.906917    0.100304
      6          6           0        3.168719   -2.075044   -0.013199
      7          6           0        2.256836    1.576396   -0.128123
      8          6           0        0.905125    1.440150    0.313061
      9          6           0        0.278465    0.241767    0.647010
     10          6           0        0.997402   -1.001653    0.547768
     11          8           0        2.695019    2.773297   -0.392816
     12          8           0        0.461181   -2.123704    0.838971
     13          1           0        4.795772    1.327919   -0.902319
     14          1           0        6.126471   -0.766940   -1.087443
     15          1           0        5.064730   -2.965168   -0.507926
     16          1           0        2.680237   -3.010321    0.242469
     17          8           0        0.246397    2.646992    0.394839
     18          6           0       -1.150784    0.218195    1.127213
     19          6           0       -2.192947    0.002211    0.008768
     20          6           0       -3.635545   -0.043377    0.529145
     21          6           0       -4.699714   -0.243566   -0.559407
     22          6           0       -6.137727   -0.281177   -0.024638
     23          6           0       -7.203686   -0.478986   -1.107794
     24          1           0        0.972702    3.252356    0.103501
     25          1           0       -1.381609    1.158800    1.641927
     26          1           0       -1.249771   -0.604347    1.845059
     27          1           0       -1.955048   -0.935366   -0.505622
     28          1           0       -2.095430    0.807884   -0.729156
     29          1           0       -3.852303    0.888412    1.071256
     30          1           0       -3.723776   -0.851162    1.268847
     31          1           0       -4.492099   -1.176212   -1.100365
     32          1           0       -4.613417    0.560951   -1.301911
     33          1           0       -6.343180    0.650681    0.518522
     34          1           0       -6.223048   -1.085239    0.718019
     35          1           0       -7.177153    0.330276   -1.846732
     36          1           0       -8.217238   -0.502004   -0.691712
     37          1           0       -7.055133   -1.421156   -1.647911
 ---------------------------------------------------------------------

 SCF Done:  E(UB3LYP) =  -846.714509707     A.U. after   18 cycles

 The electronic state is 1-A.
 Alpha  occ. eigenvalues --  -19.10794 -19.02208 -19.01430 -10.17215 -10.16908
 Alpha  occ. eigenvalues --  -10.15838 -10.15701 -10.15427 -10.15290 -10.15120
 Alpha  occ. eigenvalues --  -10.14578 -10.14530 -10.14178 -10.14143 -10.14090
 Alpha  occ. eigenvalues --  -10.13876 -10.13217 -10.12814 -10.11989  -1.02178
 Alpha  occ. eigenvalues --   -0.93626  -0.92646  -0.82034  -0.79704  -0.77244
 Alpha  occ. eigenvalues --   -0.74848  -0.71818  -0.71535  -0.68000  -0.63931
 Alpha  occ. eigenvalues --   -0.61771  -0.58499  -0.57530  -0.56661  -0.55022
 Alpha  occ. eigenvalues --   -0.53073  -0.49900  -0.47056  -0.46680  -0.44630
 Alpha  occ. eigenvalues --   -0.43362  -0.42584  -0.41861  -0.41735  -0.40416
 Alpha  occ. eigenvalues --   -0.39697  -0.38797  -0.38487  -0.37095  -0.36602
 Alpha  occ. eigenvalues --   -0.36050  -0.35517  -0.34742  -0.34506  -0.33607
 Alpha  occ. eigenvalues --   -0.33252  -0.32256  -0.31777  -0.31597  -0.30959
 Alpha  occ. eigenvalues --   -0.30753  -0.30094  -0.29338  -0.29164  -0.22624
 Alpha  occ. eigenvalues --   -0.22050  -0.21071  -0.19246  -0.18793  -0.10351
 Alpha virt. eigenvalues --   -0.00256  -0.00057   0.00305   0.01051   0.01332
 Alpha virt. eigenvalues --    0.01649   0.02215   0.02331   0.02677   0.03409
 Alpha virt. eigenvalues --    0.03534   0.04442   0.04880   0.05160   0.05491

  Beta  occ. eigenvalues --  -19.10794 -19.02208 -19.01430 -10.17215 -10.16908
  Beta  occ. eigenvalues --  -10.15838 -10.15701 -10.15427 -10.15290 -10.15120
  Beta  occ. eigenvalues --  -10.14578 -10.14530 -10.14178 -10.14143 -10.14090
  Beta  occ. eigenvalues --  -10.13876 -10.13217 -10.12814 -10.11989  -1.02178
  Beta  occ. eigenvalues --   -0.93626  -0.92646  -0.82034  -0.79704  -0.77244
  Beta  occ. eigenvalues --   -0.74848  -0.71818  -0.71535  -0.68000  -0.63931
  Beta  occ. eigenvalues --   -0.61771  -0.58499  -0.57530  -0.56661  -0.55022
  Beta  occ. eigenvalues --   -0.53073  -0.49900  -0.47056  -0.46680  -0.44630
  Beta  occ. eigenvalues --   -0.43362  -0.42584  -0.41861  -0.41735  -0.40416
  Beta  occ. eigenvalues --   -0.39697  -0.38797  -0.38487  -0.37095  -0.36602
  Beta  occ. eigenvalues --   -0.36050  -0.35517  -0.34742  -0.34506  -0.33607
  Beta  occ. eigenvalues --   -0.33252  -0.32256  -0.31777  -0.31597  -0.30959
  Beta  occ. eigenvalues --   -0.30753  -0.30094  -0.29338  -0.29164  -0.22624
  Beta  occ. eigenvalues --   -0.22050  -0.21071  -0.19246  -0.18793  -0.10351
  Beta virt. eigenvalues --   -0.00256  -0.00057   0.00305   0.01051   0.01332
  Beta virt. eigenvalues --    0.01649   0.02215   0.02331   0.02677   0.03409
  Beta virt. eigenvalues --    0.03534   0.04442   0.04880   0.05160   0.05491

 Mulliken charges and spin densities:
               1          2
     1  C   -0.048896  -0.000000
     2  C   -0.389932   0.000000
     3  C   -0.495317  -0.000000
     4  C    0.450696   0.000000
     5  C   -0.041227  -0.000000
     6  C    0.029428  -0.000000
     7  C   -1.007616   0.000000
     8  C   -0.646263   0.000000
     9  C    2.030455  -0.000000
    10  C   -0.778836  -0.000000
    11  O   -0.732932   0.000000
    12  O   -0.644070   0.000000
    13  H    0.140094  -0.000000
    14  H    0.153450   0.000000
    15  H    0.147945  -0.000000
    16  H    0.140910   0.000000
    17  O   -0.338202  -0.000000
    18  C   -0.318905   0.000000
    19  C   -0.538650   0.000000
    20  C   -0.086871  -0.000000
    21  C   -0.234980   0.000000
    22  C   -0.191143  -0.000000
    23  C   -0.688767  -0.000000
    24  H    0.275880   0.000000
    25  H    0.194606  -0.000000
    26  H    0.172157   0.000000
    27  H    0.169728   0.000000
    28  H    0.147118  -0.000000
    29  H    0.103029   0.000000
    30  H    0.106175  -0.000000
    31  H    0.117595  -0.000000
    32  H    0.118827   0.000000
    33  H    0.130376  -0.000000
    34  H    0.131044   0.000000
    35  H    0.140484   0.000000
    36  H    0.142074  -0.000000
    37  H    0.140538   0.000000
 Sum of Mulliken charges =  -2.00000  -0.00000

 Dipole moment (field-independent basis, Debye):
    X=            -16.2837    Y=             -2.2903    Z=             -1.7185  Tot=             16.5336
 Quadrupole moment (field-independent basis, Debye-Ang):
   XX=           -178.4304   YY=           -170.4527   ZZ=           -131.5874
   XY=            -14.5484   XZ=              3.6218   YZ=              7.3913

 Normal termination of Gaussian 16 at Sun Jan 21 09:11:05 2024.
