 Q-Chem 5.4, Q-Chem, Inc., Pleasanton, CA (2021)
 Q-Chem 5.4.0 for Intel X86 EM64T Linux

User input:
--------------------------------------------------------------
$molecule
-1 2
C                 -1.2686180000      1.8203100000     -0.8581820000
C                 -2.5574510000      1.1630910000     -0.8026410000
C                 -2.8846650000      0.1161470000      0.0238780000
C                 -1.8536910000     -0.3885880000      0.9307500000
C                 -0.5650530000      0.2686640000      0.8752770000
C                 -0.2377970000      1.3157090000      0.0487300000
O                 -1.0803300000      2.7813940000     -1.6651250000
O                 -2.0421200000     -1.3498110000      1.7375070000
C                  1.1580340000      1.9626430000      0.0487930000
C                  1.0381390000      3.4622550000      0.4142330000
C                  2.1115860000      1.3047360000      1.0640630000
C                  1.7954200000      1.8286260000     -1.3557070000
C                 -4.2804230000     -0.5307730000      0.0239040000
C                 -5.2338710000      0.1270880000     -0.9914300000
C                 -4.9178530000     -0.3967270000      1.4283970000
C                 -4.1606040000     -2.0304400000     -0.3415060000
H                 -3.2798630000      1.5789130000     -1.4956520000
H                  0.1574960000     -0.1469980000      1.5682640000
H                  0.3868510000      3.9732800000     -0.2945180000
H                  2.0274070000      3.9375520000      0.4006360000
H                  0.6205990000      3.5778080000      1.4200280000
H                  1.7366340000      1.3885960000      2.0883190000
H                  3.0866420000      1.8027680000      1.0221380000
H                  2.2679080000      0.2438960000      0.8474400000
H                  2.7856820000      2.3018280000     -1.3708360000
H                  1.9203260000      0.7730030000     -1.6190150000
H                  1.1619620000      2.3025760000     -2.1052270000
H                 -4.8586310000      0.0433720000     -2.0156060000
H                 -5.3904470000      1.1879130000     -0.7748720000
H                 -6.2088960000     -0.3710390000     -0.9497970000
H                 -5.0424720000      0.6588970000      1.6918710000
H                 -4.2845450000     -0.8708850000      2.1779040000
H                 -5.9082520000     -0.8696240000      1.4434580000
H                 -3.7429140000     -2.1460740000     -1.3472230000
H                 -5.1499670000     -2.5055550000     -0.3281580000
H                 -3.5096510000     -2.5415980000      0.3674860000
$end
$rem
MAX_SCF_CYCLES=200
BASIS  =  6-311++G(d,p)
GUI  =  2
JOB_TYPE  =  SP
METHOD  =  B3LYP
SOLVENT_METHOD = PCM
$end
$pcm
theory = CPCM
$end
$solvent
dielectric 37.219
opticaldielectric 1.43
$end

--------------------------------------------------------------

             Standard Nuclear Orientation (Angstroms)
    I     Atom           X                Y                Z
 ----------------------------------------------------------------
    1      C      -1.2686180000     1.8203100000    -0.8581820000
    2      C      -2.5574510000     1.1630910000    -0.8026410000
    3      C      -2.8846650000     0.1161470000     0.0238780000
    4      C      -1.8536910000    -0.3885880000     0.9307500000
    5      C      -0.5650530000     0.2686640000     0.8752770000
    6      C      -0.2377970000     1.3157090000     0.0487300000
    7      O      -1.0803300000     2.7813940000    -1.6651250000
    8      O      -2.0421200000    -1.3498110000     1.7375070000
    9      C       1.1580340000     1.9626430000     0.0487930000
   10      C       1.0381390000     3.4622550000     0.4142330000
   11      C       2.1115860000     1.3047360000     1.0640630000
   12      C       1.7954200000     1.8286260000    -1.3557070000
   13      C      -4.2804230000    -0.5307730000     0.0239040000
   14      C      -5.2338710000     0.1270880000    -0.9914300000
   15      C      -4.9178530000    -0.3967270000     1.4283970000
   16      C      -4.1606040000    -2.0304400000    -0.3415060000
   17      H      -3.2798630000     1.5789130000    -1.4956520000
   18      H       0.1574960000    -0.1469980000     1.5682640000
   19      H       0.3868510000     3.9732800000    -0.2945180000
   20      H       2.0274070000     3.9375520000     0.4006360000
   21      H       0.6205990000     3.5778080000     1.4200280000
   22      H       1.7366340000     1.3885960000     2.0883190000
   23      H       3.0866420000     1.8027680000     1.0221380000
   24      H       2.2679080000     0.2438960000     0.8474400000
   25      H       2.7856820000     2.3018280000    -1.3708360000
   26      H       1.9203260000     0.7730030000    -1.6190150000
   27      H       1.1619620000     2.3025760000    -2.1052270000
   28      H      -4.8586310000     0.0433720000    -2.0156060000
   29      H      -5.3904470000     1.1879130000    -0.7748720000
   30      H      -6.2088960000    -0.3710390000    -0.9497970000
   31      H      -5.0424720000     0.6588970000     1.6918710000
   32      H      -4.2845450000    -0.8708850000     2.1779040000
   33      H      -5.9082520000    -0.8696240000     1.4434580000
   34      H      -3.7429140000    -2.1460740000    -1.3472230000
   35      H      -5.1499670000    -2.5055550000    -0.3281580000
   36      H      -3.5096510000    -2.5415980000     0.3674860000
 ----------------------------------------------------------------

    8    -696.3124913319      5.44e-06  Convergence criterion met
 Total energy in the final basis set =     -696.3124913319

                    Orbital Energies (a.u.)
 --------------------------------------------------------------

 Alpha MOs
 -- Occupied --
-19.0701 -19.0701 -10.2133 -10.2133 -10.1779 -10.1779 -10.1652 -10.1652
-10.1512 -10.1512 -10.1463 -10.1463 -10.1427 -10.1427 -10.1427 -10.1427
 -0.9930  -0.9905  -0.8315  -0.8153  -0.7809  -0.7209  -0.6796  -0.6759
 -0.6722  -0.6722  -0.6656  -0.6065  -0.5676  -0.5396  -0.5101  -0.4758
 -0.4642  -0.4511  -0.4297  -0.4284  -0.4267  -0.4248  -0.4107  -0.4083
 -0.4055  -0.3929  -0.3918  -0.3720  -0.3668  -0.3630  -0.3618  -0.3528
 -0.3525  -0.3480  -0.3303  -0.3257  -0.3231  -0.3215  -0.3186  -0.3127
 -0.2706  -0.2421  -0.2336  -0.2272  -0.1555

 Beta MOs
 -- Occupied --
-19.0636 -19.0636 -10.2116 -10.2116 -10.1780 -10.1780 -10.1640 -10.1640
-10.1503 -10.1503 -10.1463 -10.1463 -10.1427 -10.1427 -10.1427 -10.1427
 -0.9814  -0.9786  -0.8276  -0.8143  -0.7781  -0.7187  -0.6765  -0.6756
 -0.6720  -0.6719  -0.6581  -0.6035  -0.5640  -0.5384  -0.5073  -0.4740
 -0.4617  -0.4505  -0.4279  -0.4263  -0.4252  -0.4244  -0.4100  -0.4027
 -0.3968  -0.3877  -0.3852  -0.3718  -0.3625  -0.3609  -0.3564  -0.3509
 -0.3497  -0.3310  -0.3295  -0.3238  -0.3213  -0.3194  -0.3181  -0.3122
 -0.2400  -0.2347  -0.2278  -0.2217

          Ground-State Mulliken Net Atomic Charges

     Atom                 Charge (a.u.)    Spin (a.u.)
  --------------------------------------------------------
      1 C                    -0.877426       0.108134
      2 C                    -0.392201       0.050933
      3 C                     1.072876       0.109345
      4 C                    -0.876875       0.108179
      5 C                    -0.392478       0.051051
      6 C                     1.071301       0.109503
      7 O                    -0.481456       0.238237
      8 O                    -0.481443       0.238248
      9 C                     0.564716      -0.017964
     10 C                    -0.700710       0.011909
     11 C                    -0.571947      -0.002819
     12 C                    -0.698966       0.011891
     13 C                     0.563615      -0.017927
     14 C                    -0.571886      -0.002817
     15 C                    -0.698866       0.011881
     16 C                    -0.700583       0.011896
     17 H                     0.200997      -0.008287
     18 H                     0.200966      -0.008293
     19 H                     0.171843      -0.001811
     20 H                     0.154283       0.000426
     21 H                     0.138890       0.000947
     22 H                     0.138801      -0.000294
     23 H                     0.177278      -0.000068
     24 H                     0.139410      -0.000288
     25 H                     0.154244       0.000418
     26 H                     0.138153       0.000955
     27 H                     0.172316      -0.001837
     28 H                     0.138782      -0.000294
     29 H                     0.139396      -0.000287
     30 H                     0.177279      -0.000068
     31 H                     0.138165       0.000955
     32 H                     0.172298      -0.001835
     33 H                     0.154216       0.000416
     34 H                     0.138898       0.000948
     35 H                     0.154281       0.000423
     36 H                     0.171834      -0.001808
  --------------------------------------------------------
  Sum of atomic charges =    -1.000000

                    Cartesian Multipole Moments
 -----------------------------------------------------------------
    Charge (ESU x 10^10)
                -4.8032
    Dipole Moment (Debye)
         X       7.4987      Y      -3.4380      Z      -0.1738
       Tot       8.2511
    Quadrupole Moments (Debye-Ang)
        XX    -115.7790     XY       0.7980     YY    -131.1115
        XZ       5.3552     YZ      18.7479     ZZ    -121.3535

 Total job time:  76.84s(wall), 531.45s(cpu)
        *  Thank you very much for using Q-Chem.  Have a nice day.  *
