 Q-Chem 5.4, Q-Chem, Inc., Pleasanton, CA (2021)
 Q-Chem 5.4.0 for Intel X86 EM64T Linux

User input:
--------------------------------------------------------------
$molecule
-2 1
C                 -0.9280540000      2.1397990000      0.0110600000
C                 -2.0553870000      1.2817760000      0.0967840000
C                 -2.0110780000     -0.1002340000      0.1791770000
C                 -0.8336340000     -0.8879970000      0.1886520000
C                  0.3393610000     -0.0441890000      0.0833320000
C                  0.2959370000      1.3666960000      0.0004410000
O                 -0.9850000000      3.4356870000     -0.0347450000
O                 -0.8056340000     -2.1842760000      0.2670320000
C                  1.5758130000      2.1641320000     -0.1009160000
C                  1.6657130000     -0.7677600000      0.0453710000
O                 -3.3414910000     -0.5867720000      0.3017290000
O                 -3.4077240000      1.6959670000      0.2056420000
C                 -4.1113540000      0.5167060000     -0.1219300000
H                  2.1689040000      1.9106500000     -0.9956510000
H                  2.2444720000      2.0069980000      0.7625750000
H                  1.3112550000      3.2245060000     -0.1460560000
H                  1.4664340000     -1.8417630000      0.1021180000
H                  2.3281370000     -0.4895660000      0.8820670000
H                  2.2361550000     -0.5624900000     -0.8765100000
H                 -4.2435120000      0.4658960000     -1.2256500000
H                 -5.0843320000      0.5150230000      0.3813780000
$end

$rem
BASIS  =  6-311++G(d,p)
GUI  =  2
JOB_TYPE  =  SP
METHOD  =  B3LYP
SCF_CONVERGENCE  = 8
SOLVENT_METHOD = sm12
$end

$smx
solvent dimethylformamide
charges CM5
$end

--------------------------------------------------------------

             Standard Nuclear Orientation (Angstroms)
    I     Atom           X                Y                Z
 ----------------------------------------------------------------
    1      C      -0.9280540000     2.1397990000     0.0110600000
    2      C      -2.0553870000     1.2817760000     0.0967840000
    3      C      -2.0110780000    -0.1002340000     0.1791770000
    4      C      -0.8336340000    -0.8879970000     0.1886520000
    5      C       0.3393610000    -0.0441890000     0.0833320000
    6      C       0.2959370000     1.3666960000     0.0004410000
    7      O      -0.9850000000     3.4356870000    -0.0347450000
    8      O      -0.8056340000    -2.1842760000     0.2670320000
    9      C       1.5758130000     2.1641320000    -0.1009160000
   10      C       1.6657130000    -0.7677600000     0.0453710000
   11      O      -3.3414910000    -0.5867720000     0.3017290000
   12      O      -3.4077240000     1.6959670000     0.2056420000
   13      C      -4.1113540000     0.5167060000    -0.1219300000
   14      H       2.1689040000     1.9106500000    -0.9956510000
   15      H       2.2444720000     2.0069980000     0.7625750000
   16      H       1.3112550000     3.2245060000    -0.1460560000
   17      H       1.4664340000    -1.8417630000     0.1021180000
   18      H       2.3281370000    -0.4895660000     0.8820670000
   19      H       2.2361550000    -0.5624900000    -0.8765100000
   20      H      -4.2435120000     0.4658960000    -1.2256500000
   21      H      -5.0843320000     0.5150230000     0.3813780000
 ----------------------------------------------------------------

   18    -648.7641081466      8.19e-09  Convergence criterion met
 Total energy in the final basis set =     -649.0559415671

                    Orbital Energies (a.u.)
 --------------------------------------------------------------

 Alpha MOs
 -- Occupied --
-19.1364 -19.1364 -19.0137 -19.0135 -10.2705 -10.1817 -10.1810 -10.1764
-10.1763 -10.1630 -10.1629 -10.1375 -10.1370  -1.0959  -0.9980  -0.9259
 -0.9219  -0.7991  -0.7547  -0.7175  -0.6763  -0.6470  -0.6143  -0.5607
 -0.5466  -0.5009  -0.4866  -0.4705  -0.4413  -0.4269  -0.4069  -0.3956
 -0.3820  -0.3795  -0.3702  -0.3642  -0.3583  -0.3576  -0.3391  -0.3244
 -0.3176  -0.2952  -0.2947  -0.2158  -0.1954  -0.1911  -0.1827  -0.1171

          Ground-State Mulliken Net Atomic Charges

     Atom                 Charge (a.u.)
  ----------------------------------------
      1 C                    -2.237893
      2 C                     0.762939
      3 C                     0.817152
      4 C                    -2.249784
      5 C                    -0.616074
      6 C                    -0.598139
      7 O                    -0.471360
      8 O                    -0.472630
      9 C                     0.293256
     10 C                     0.291149
     11 O                    -0.023740
     12 O                    -0.015692
     13 C                     1.097039
     14 H                     0.170917
     15 H                     0.163290
     16 H                     0.151391
     17 H                     0.148887
     18 H                     0.167973
     19 H                     0.165731
     20 H                     0.067651
     21 H                     0.387935
  ----------------------------------------
  Sum of atomic charges =    -2.000000

                    Cartesian Multipole Moments
 -----------------------------------------------------------------
    Charge (ESU x 10^10)
                -9.6064
    Dipole Moment (Debye)
         X       7.7485      Y      -6.0206      Z      -1.3956
       Tot       9.9113
    Quadrupole Moments (Debye-Ang)
        XX    -106.3773     XY       6.5184     YY    -153.8670
        XZ       3.1927     YZ       2.5267     ZZ     -86.3161

 Total job time:  326.95s(wall), 2472.00s(cpu)
        *  Thank you very much for using Q-Chem.  Have a nice day.  *
