 Gaussian 16, Revision A.03,
 Gaussian 16:  ES64L-G16RevA.03 25-Dec-2016

 ----------------------------------------------------------------------
 #P UB3LYP/6-311++G(d,p) nosym opt freq SCRF=(PCM,Solvent=n,n-DiMethylF
 ormamide)
 ----------------------------------------------------------------------

 -------
 Radical
 -------
 Symbolic Z-matrix:
 Charge = -2 Multiplicity = 2

 SCF Done:  E(UB3LYP) =  -1158.87217197     A.U. after   21 cycles
 SCF Done:  E(UB3LYP) =  -1158.87275812     A.U. after   17 cycles
 SCF Done:  E(UB3LYP) =  -1158.87284082     A.U. after   15 cycles
 SCF Done:  E(UB3LYP) =  -1158.87284031     A.U. after   14 cycles
 SCF Done:  E(UB3LYP) =  -1158.87285519     A.U. after   14 cycles
 SCF Done:  E(UB3LYP) =  -1158.87285741     A.U. after   12 cycles
 SCF Done:  E(UB3LYP) =  -1158.87285751     A.U. after   10 cycles
 Optimization completed.
    -- Stationary point found.
 Normal termination of Gaussian 16 at Sun Feb 11 16:41:04 2024.

 ----------------------------------------------------------------------
 #P Geom=AllCheck Guess=TCheck SCRF=Check GenChk UB3LYP/6-311++G(d,p) F
 req
 ----------------------------------------------------------------------

 Structure from the checkpoint file:  "326-rad.chk"
 -------
 Radical
 -------
 Charge = -2 Multiplicity = 2

                          Input orientation:
 ---------------------------------------------------------------------
 Center     Atomic      Atomic             Coordinates (Angstroms)
 Number     Number       Type             X           Y           Z
 ---------------------------------------------------------------------
      1          6           0       -1.838729    2.793763   -0.794981
      2          6           0       -2.922268    1.982643   -0.511699
      3          6           0       -2.705332    0.667786   -0.066517
      4          6           0       -0.514785    2.330376   -0.649856
      5          6           0       -0.291966    0.992640   -0.201524
      6          6           0       -1.416453    0.185585    0.085094
      7          6           0        0.594328    3.243252   -0.966995
      8          6           0        1.974259    2.722491   -0.821705
      9          6           0        2.126792    1.362834   -0.365110
     10          6           0        1.076426    0.540329   -0.068693
     11          8           0        0.383414    4.421719   -1.349108
     12          8           0        2.980844    3.442195   -1.087870
     13          1           0       -1.982951    3.811011   -1.138169
     14          1           0       -3.932697    2.357985   -0.631661
     15          1           0       -3.548568    0.024441    0.159960
     16          1           0       -1.264915   -0.827619    0.429705
     17          1           0        3.139476    0.992830   -0.258939
     18         16           0        1.458264   -1.147699    0.486633
     19          8           0        2.945185   -1.249141    0.514837
     20          8           0        0.840211   -2.067120   -0.516801
     21          8           0        0.848816   -1.291697    1.843664
 ---------------------------------------------------------------------

 SCF Done:  E(UB3LYP) =  -1158.87285751     A.U. after    2 cycles

 Alpha  occ. eigenvalues --  -89.03718 -19.08223 -19.08127 -19.08126 -19.07981
 Alpha  occ. eigenvalues --  -19.07646 -10.22088 -10.21543 -10.19332 -10.18740
 Alpha  occ. eigenvalues --  -10.17394 -10.17189 -10.17067 -10.17033 -10.16927
 Alpha  occ. eigenvalues --  -10.16478  -8.09609  -6.05891  -6.05873  -6.05768
 Alpha  occ. eigenvalues --   -1.09878  -1.01179  -0.98243  -0.96256  -0.96023
 Alpha  occ. eigenvalues --   -0.86519  -0.81096  -0.75592  -0.73252  -0.69605
 Alpha  occ. eigenvalues --   -0.62263  -0.61295  -0.59204  -0.55029  -0.50984
 Alpha  occ. eigenvalues --   -0.50082  -0.48401  -0.45177  -0.44527  -0.44430
 Alpha  occ. eigenvalues --   -0.43935  -0.42479  -0.41924  -0.41674  -0.40309
 Alpha  occ. eigenvalues --   -0.38774  -0.37093  -0.35233  -0.34950  -0.34817
 Alpha  occ. eigenvalues --   -0.32683  -0.32277  -0.31784  -0.29015  -0.28393
 Alpha  occ. eigenvalues --   -0.27889  -0.25747  -0.25613  -0.24657  -0.23168
 Alpha  occ. eigenvalues --   -0.22695  -0.16098
 Alpha virt. eigenvalues --   -0.03827  -0.00699   0.00202   0.01384   0.01811
 Alpha virt. eigenvalues --    0.02341   0.03369   0.03711   0.04764   0.04996
 Alpha virt. eigenvalues --    0.06174   0.06352   0.06587   0.07839   0.08238

  Beta  occ. eigenvalues --  -89.03722 -19.08225 -19.08102 -19.08101 -19.07391
  Beta  occ. eigenvalues --  -19.06953 -10.21937 -10.21379 -10.19101 -10.18691
  Beta  occ. eigenvalues --  -10.17368 -10.17135 -10.17051 -10.17029 -10.16889
  Beta  occ. eigenvalues --  -10.16488  -8.09613  -6.05894  -6.05876  -6.05777
  Beta  occ. eigenvalues --   -1.09856  -1.00097  -0.97015  -0.96241  -0.95969
  Beta  occ. eigenvalues --   -0.86295  -0.80749  -0.75315  -0.73096  -0.68821
  Beta  occ. eigenvalues --   -0.61969  -0.61145  -0.58837  -0.54851  -0.50818
  Beta  occ. eigenvalues --   -0.49891  -0.48161  -0.45033  -0.44424  -0.44317
  Beta  occ. eigenvalues --   -0.43811  -0.42409  -0.41345  -0.40286  -0.39796
  Beta  occ. eigenvalues --   -0.38494  -0.35788  -0.35091  -0.34723  -0.32978
  Beta  occ. eigenvalues --   -0.32530  -0.32224  -0.30255  -0.28902  -0.28278
  Beta  occ. eigenvalues --   -0.27301  -0.25038  -0.24999  -0.24512  -0.22166
  Beta  occ. eigenvalues --   -0.22115
  Beta virt. eigenvalues --   -0.09350  -0.02855   0.00215   0.00609   0.01396
  Beta virt. eigenvalues --    0.01836   0.03382   0.03439   0.03739   0.04840
  Beta virt. eigenvalues --    0.05039   0.06193   0.06391   0.06602   0.08003

 Mulliken charges and spin densities:
               1          2
     1  C    0.151305   0.055272
     2  C   -0.482057   0.006205
     3  C   -0.843598   0.052032
     4  C    0.564651   0.005132
     5  C    0.983367   0.021194
     6  C   -0.535744   0.011791
     7  C   -0.647225   0.115332
     8  C    0.047054   0.163174
     9  C    0.127984  -0.040730
    10  C   -0.751393   0.133748
    11  O   -0.468893   0.224000
    12  O   -0.512353   0.251112
    13  H    0.164557  -0.004087
    14  H    0.182104  -0.001255
    15  H    0.185169  -0.003523
    16  H    0.154196   0.000954
    17  H    0.241055  -0.001401
    18  S    0.589533  -0.001246
    19  O   -0.344731   0.000326
    20  O   -0.402209   0.006284
    21  O   -0.402769   0.005686
 Sum of Mulliken charges =  -2.00000   1.00000

 Dipole moment (field-independent basis, Debye):
    X=            -16.0790    Y=             -8.6444    Z=              1.9554  Tot=             18.3598
 Quadrupole moment (field-independent basis, Debye-Ang):
   XX=           -142.7991   YY=           -193.6309   ZZ=           -123.0635
   XY=            -16.5818   XZ=              4.1296   YZ=             25.5454

  Exact polarizability: 334.099  20.080 283.386  -9.553 -50.198 151.605
 Approx polarizability: 371.706  31.165 312.875 -13.519 -53.123 174.132

                      1                      2                      3
                      A                      A                      A
 Frequencies --     54.5682                76.6501               108.3918
 Red. masses --     13.8173                 7.6976                 7.5992
 Frc consts  --      0.0242                 0.0266                 0.0526
 IR Inten    --      5.5171                 4.0947                 0.0643

                      4                      5                      6
                      A                      A                      A
 Frequencies --    137.0636               149.7910               217.5287
 Red. masses --      5.6017                 9.2099                 5.3529
 Frc consts  --      0.0620                 0.1218                 0.1492
 IR Inten    --      6.1614                13.6894                 1.0660

                      7                      8                      9
                      A                      A                      A
 Frequencies --    239.2628               263.8327               280.1276
 Red. masses --     13.0323                 9.0856                 9.3437
 Frc consts  --      0.4396                 0.3726                 0.4320
 IR Inten    --      5.3895                 4.5662                 0.1105

                     10                     11                     12
                      A                      A                      A
 Frequencies --    325.2685               370.5663               408.4968
 Red. masses --      9.3376                14.5327                 5.1671
 Frc consts  --      0.5821                 1.1758                 0.5080
 IR Inten    --      5.4174                 2.9739                 0.2061

                     13                     14                     15
                      A                      A                      A
 Frequencies --    428.4963               433.3934               481.2416
 Red. masses --      4.3948                 9.8881                 8.1771
 Frc consts  --      0.4754                 1.0943                 1.1158
 IR Inten    --      0.2728                27.2686                13.2015

                     16                     17                     18
                      A                      A                      A
 Frequencies --    493.5364               505.0441               527.5088
 Red. masses --     15.2723                 9.5116                 4.0602
 Frc consts  --      2.1918                 1.4294                 0.6657
 IR Inten    --     44.7457                54.3064                18.7394

                     19                     20                     21
                      A                      A                      A
 Frequencies --    579.0411               611.5696               628.7374
 Red. masses --     12.5389                 4.7671                 8.9020
 Frc consts  --      2.4770                 1.0505                 2.0734
 IR Inten    --    230.6669                 1.7446               174.6666

                     22                     23                     24
                      A                      A                      A
 Frequencies --    668.9034               716.9946               721.0336
 Red. masses --      6.5555                 3.6399                 6.6912
 Frc consts  --      1.7281                 1.1025                 2.0496
 IR Inten    --     20.2892                12.0101                 4.1472

                     25                     26                     27
                      A                      A                      A
 Frequencies --    764.1592               781.2245               788.3095
 Red. masses --      1.6862                 6.2880                 3.6764
 Frc consts  --      0.5801                 2.2611                 1.3461
 IR Inten    --     89.0305                 2.1388                 6.5720

                     28                     29                     30
                      A                      A                      A
 Frequencies --    873.7079               894.7848               919.8106
 Red. masses --      1.4451                 1.3765                 7.0506
 Frc consts  --      0.6500                 0.6493                 3.5146
 IR Inten    --      2.7557                31.1827                37.8398

                     31                     32                     33
                      A                      A                      A
 Frequencies --    971.8427               984.0248               994.1542
 Red. masses --      1.3786                11.2047                 6.8482
 Frc consts  --      0.7671                 6.3924                 3.9878
 IR Inten    --      0.8877               427.5267                57.8437

                     34                     35                     36
                      A                      A                      A
 Frequencies --    994.7998              1056.0491              1100.1049
 Red. masses --      1.3241                 2.0736                19.6464
 Frc consts  --      0.7721                 1.3625                14.0088
 IR Inten    --      2.5881                25.0069               585.4678

                     37                     38                     39
                      A                      A                      A
 Frequencies --   1114.0452              1128.6431              1163.3860
 Red. masses --     11.8239                 2.0263                 1.5910
 Frc consts  --      8.6460                 1.5208                 1.2687
 IR Inten    --    470.0199                63.0993                32.1123

                     40                     41                     42
                      A                      A                      A
 Frequencies --   1190.2226              1228.4851              1247.7782
 Red. masses --      1.4220                 3.4589                 2.7027
 Frc consts  --      1.1869                 3.0756                 2.4792
 IR Inten    --     13.2953                25.2092                22.2323

                     43                     44                     45
                      A                      A                      A
 Frequencies --   1291.7773              1335.8517              1373.2014
 Red. masses --      1.9154                 7.1135                 2.9513
 Frc consts  --      1.8831                 7.4791                 3.2789
 IR Inten    --      4.0060                 9.6502                 2.9269

                     46                     47                     48
                      A                      A                      A
 Frequencies --   1446.9633              1486.8671              1501.2638
 Red. masses --      2.7498                 4.3640                 4.8199
 Frc consts  --      3.3921                 5.6844                 6.4003
 IR Inten    --    246.3707               469.1375               479.4810

                     49                     50                     51
                      A                      A                      A
 Frequencies --   1512.2205              1576.9072              1588.9775
 Red. masses --      3.9156                 6.6111                 7.1364
 Frc consts  --      5.2757                 9.6858                10.6162
 IR Inten    --    425.8634               260.6543               176.5832

                     52                     53                     54
                      A                      A                      A
 Frequencies --   1630.0451              3161.2190              3175.9051
 Red. masses --      5.5340                 1.0863                 1.0916
 Frc consts  --      8.6635                 6.3963                 6.4872
 IR Inten    --     14.9377                11.1530                30.8115

                     55                     56                     57
                      A                      A                      A
 Frequencies --   3187.0813              3190.9857              3213.8499
 Red. masses --      1.0892                 1.0934                 1.0921
 Frc consts  --      6.5183                 6.5595                 6.6463
 IR Inten    --      5.1898                27.2789                 6.6091

 - Thermochemistry -
 -------------------
 Temperature   298.150 Kelvin.  Pressure   1.00000 Atm.
 Atom     1 has atomic number  6 and mass  12.00000

 Molecular mass:   236.98577 amu.
 Principal axes and moments of inertia in atomic units:
                           1         2         3
     Eigenvalues --  2604.293944083.891886335.51043
           X           -0.36669   0.93025   0.01335
           Y            0.88365   0.34376   0.31778
           Z           -0.29103  -0.12832   0.94807
 This molecule is an asymmetric top.
 Rotational symmetry number  1.
 Warning -- assumption of classical behavior for rotation
           may cause significant error
 Rotational temperatures (Kelvin)      0.03326     0.02121     0.01367
 Rotational constants (GHZ):           0.69299     0.44192     0.28486
 Zero-point vibrational energy     348685.7 (Joules/Mol)
                                   83.33788 (Kcal/Mol)
 Warning -- explicit consideration of  20 degrees of freedom as
           vibrations may cause significant error
 Vibrational temperatures:     78.51   110.28   155.95   197.20   215.52
          (Kelvin)            312.98   344.25   379.60   403.04   467.99
                              533.16   587.74   616.51   623.56   692.40
                              710.09   726.65   758.97   833.11   879.91
                              904.61   962.40  1031.60  1037.41  1099.45
                             1124.01  1134.20  1257.07  1287.40  1323.40
                             1398.26  1415.79  1430.37  1431.30  1519.42
                             1582.81  1602.86  1623.87  1673.85  1712.46
                             1767.52  1795.27  1858.58  1921.99  1975.73
                             2081.86  2139.27  2159.98  2175.75  2268.82
                             2286.18  2345.27  4548.29  4569.42  4585.50
                             4591.12  4624.01

 Zero-point correction=                           0.132807 (Hartree/Particle)
 Thermal correction to Energy=                    0.145314
 Thermal correction to Enthalpy=                  0.146258
 Thermal correction to Gibbs Free Energy=         0.092780
 Sum of electronic and zero-point Energies=          -1158.740050
 Sum of electronic and thermal Energies=             -1158.727544
 Sum of electronic and thermal Enthalpies=           -1158.726599
 Sum of electronic and thermal Free Energies=        -1158.780078

                     E (Thermal)             CV                S
                      KCal/Mol        Cal/Mol-Kelvin    Cal/Mol-Kelvin
 Total                   91.186             48.593            112.555
 Electronic               0.000              0.000              1.377
 Translational            0.889              2.981             42.290
 Rotational               0.889              2.981             32.577
 Vibrational             89.408             42.632             36.310
 Vibration     1          0.596              1.976              4.645
 Vibration     2          0.599              1.965              3.975
 Vibration     3          0.606              1.943              3.298
 Vibration     4          0.614              1.916              2.844
 Vibration     5          0.618              1.903              2.675
 Vibration     6          0.646              1.814              1.980
 Vibration     7          0.657              1.780              1.808
 Vibration     8          0.670              1.739              1.636
 Vibration     9          0.680              1.710              1.533
 Vibration    10          0.709              1.625              1.283
 Vibration    11          0.743              1.533              1.077
 Vibration    12          0.773              1.452              0.932
 Vibration    13          0.790              1.408              0.864
 Vibration    14          0.794              1.397              0.848
 Vibration    15          0.838              1.292              0.707
 Vibration    16          0.849              1.264              0.674
 Vibration    17          0.860              1.239              0.646
 Vibration    18          0.882              1.189              0.593
 Vibration    19          0.936              1.077              0.487
 Vibration    20          0.971              1.007              0.430

 Optimization completed.
    -- Stationary point found.
 Normal termination of Gaussian 16 at Sun Feb 11 17:12:54 2024.
