 Q-Chem 5.4, Q-Chem, Inc., Pleasanton, CA (2021)
 Q-Chem 5.4.0 for Intel X86 EM64T Linux

User input:
--------------------------------------------------------------
$molecule
-2 1
C                 -3.1972750000      1.3946760000      0.1808570000
C                 -2.3862780000      0.6702460000     -0.9161800000
C                 -1.0253050000      0.1981090000     -0.4636190000
C                 -0.8295400000     -1.1205000000      0.0283590000
C                 -1.9911000000     -2.0818160000      0.1505550000
C                  0.4457550000     -1.6222630000      0.4324050000
O                  0.6378380000     -2.8206120000      0.8819800000
C                  1.5495020000     -0.6777310000      0.3077810000
C                  2.8542690000     -1.0691780000      0.6884790000
C                  3.9377520000     -0.2140840000      0.5853490000
C                  3.7493610000      1.0983560000      0.0825460000
C                  2.4807390000      1.5097160000     -0.2896730000
C                  1.3567610000      0.6593700000     -0.1900000000
C                  0.0415100000      1.1466050000     -0.5929060000
O                 -0.1247800000      2.3428500000     -1.0430340000
H                 -4.1830000000      1.7178750000     -0.1928060000
H                 -2.6496550000      2.2776400000      0.5214840000
H                 -3.3673850000      0.7426450000      1.0448070000
H                 -2.9861760000     -0.1661070000     -1.2989820000
H                 -2.2363530000      1.3818000000     -1.7368300000
H                 -1.6338640000     -2.9803390000      0.6597970000
H                 -2.8364860000     -1.6609380000      0.7167900000
H                 -2.3945140000     -2.3842450000     -0.8280740000
H                  2.9630990000     -2.0812250000      1.0667560000
H                  4.9306610000     -0.5473850000      0.8848620000
H                  4.5961080000      1.7775440000     -0.0068030000
H                  2.2983570000      2.5089920000     -0.6739010000
$end

$rem
BASIS  =  6-311++G(d,p)
GUI  =  2
JOB_TYPE  =  SP
METHOD  =  B3LYP
SCF_CONVERGENCE  = 8
SOLVENT_METHOD = sm12
$end

$smx
solvent dimethylformamide
charges CM5
$end

--------------------------------------------------------------

             Standard Nuclear Orientation (Angstroms)
    I     Atom           X                Y                Z
 ----------------------------------------------------------------
    1      C      -3.1972750000     1.3946760000     0.1808570000
    2      C      -2.3862780000     0.6702460000    -0.9161800000
    3      C      -1.0253050000     0.1981090000    -0.4636190000
    4      C      -0.8295400000    -1.1205000000     0.0283590000
    5      C      -1.9911000000    -2.0818160000     0.1505550000
    6      C       0.4457550000    -1.6222630000     0.4324050000
    7      O       0.6378380000    -2.8206120000     0.8819800000
    8      C       1.5495020000    -0.6777310000     0.3077810000
    9      C       2.8542690000    -1.0691780000     0.6884790000
   10      C       3.9377520000    -0.2140840000     0.5853490000
   11      C       3.7493610000     1.0983560000     0.0825460000
   12      C       2.4807390000     1.5097160000    -0.2896730000
   13      C       1.3567610000     0.6593700000    -0.1900000000
   14      C       0.0415100000     1.1466050000    -0.5929060000
   15      O      -0.1247800000     2.3428500000    -1.0430340000
   16      H      -4.1830000000     1.7178750000    -0.1928060000
   17      H      -2.6496550000     2.2776400000     0.5214840000
   18      H      -3.3673850000     0.7426450000     1.0448070000
   19      H      -2.9861760000    -0.1661070000    -1.2989820000
   20      H      -2.2363530000     1.3818000000    -1.7368300000
   21      H      -1.6338640000    -2.9803390000     0.6597970000
   22      H      -2.8364860000    -1.6609380000     0.7167900000
   23      H      -2.3945140000    -2.3842450000    -0.8280740000
   24      H       2.9630990000    -2.0812250000     1.0667560000
   25      H       4.9306610000    -0.5473850000     0.8848620000
   26      H       4.5961080000     1.7775440000    -0.0068030000
   27      H       2.2983570000     2.5089920000    -0.6739010000
 ----------------------------------------------------------------

   18    -653.2019918823      7.77e-09  Convergence criterion met
 Total energy in the final basis set =     -653.4897876676

                    Orbital Energies (a.u.)
 --------------------------------------------------------------

 Alpha MOs
 -- Occupied --
-19.0231 -19.0216 -10.1810 -10.1802 -10.1750 -10.1745 -10.1692 -10.1690
-10.1688 -10.1667 -10.1623 -10.1538 -10.1534 -10.1440 -10.1410  -0.9406
 -0.9361  -0.8444  -0.8016  -0.7596  -0.7424  -0.7382  -0.6864  -0.6461
 -0.6277  -0.5883  -0.5716  -0.5378  -0.5005  -0.4822  -0.4543  -0.4482
 -0.4324  -0.4225  -0.4157  -0.4114  -0.3918  -0.3869  -0.3810  -0.3726
 -0.3660  -0.3596  -0.3541  -0.3421  -0.3243  -0.3218  -0.3186  -0.3124
 -0.2477  -0.2351  -0.2187  -0.2039  -0.1962  -0.1195

          Ground-State Mulliken Net Atomic Charges

     Atom                 Charge (a.u.)
  ----------------------------------------
      1 C                     0.154234
      2 C                     0.954522
      3 C                    -0.218464
      4 C                    -0.481051
      5 C                     0.767667
      6 C                    -2.036109
      7 O                    -0.343424
      8 C                    -1.734216
      9 C                    -0.230505
     10 C                     1.627566
     11 C                     1.550869
     12 C                    -0.253048
     13 C                    -1.611663
     14 C                    -2.305828
     15 O                    -0.295168
     16 H                     0.304558
     17 H                     0.146727
     18 H                     0.098843
     19 H                     0.191751
     20 H                     0.094633
     21 H                     0.179106
     22 H                     0.199933
     23 H                     0.194383
     24 H                     0.106400
     25 H                     0.414774
     26 H                     0.412843
     27 H                     0.110667
  ----------------------------------------
  Sum of atomic charges =    -2.000000

                    Cartesian Multipole Moments
 -----------------------------------------------------------------
    Charge (ESU x 10^10)
                -9.6064
    Dipole Moment (Debye)
         X      -4.3918      Y       1.7436      Z       0.3449
       Tot       4.7379
    Quadrupole Moments (Debye-Ang)
        XX    -130.3588     XY       5.0353     YY    -149.7507
        XZ      -3.9110     YZ      16.3748     ZZ    -110.7284

 Total job time:  702.52s(wall), 4841.94s(cpu)
        *  Thank you very much for using Q-Chem.  Have a nice day.  *
