 Gaussian 16, Revision A.03,
 Gaussian 16:  ES64L-G16RevA.03 25-Dec-2016

 ----------------------------------------------------------------------
 #P UB3LYP/6-311++G(d,p) nosym opt freq SCRF=(PCM,Solvent=n,n-DiMethylF
 ormamide)
 ----------------------------------------------------------------------

 -------
 Radical
 -------
 Symbolic Z-matrix:
 Charge = -1 Multiplicity = 2

 SCF Done:  E(UB3LYP) =  -954.165713789     A.U. after   19 cycles
 SCF Done:  E(UB3LYP) =  -954.166009167     A.U. after   14 cycles
 SCF Done:  E(UB3LYP) =  -954.166080851     A.U. after   14 cycles
 SCF Done:  E(UB3LYP) =  -954.166125477     A.U. after   14 cycles
 SCF Done:  E(UB3LYP) =  -954.166139257     A.U. after   12 cycles
 SCF Done:  E(UB3LYP) =  -954.166146072     A.U. after   11 cycles
 SCF Done:  E(UB3LYP) =  -954.166147454     A.U. after   11 cycles
 SCF Done:  E(UB3LYP) =  -954.166147868     A.U. after    9 cycles
 Optimization completed.
    -- Stationary point found.
 Normal termination of Gaussian 16 at Sat Feb 10 23:06:46 2024.

 ----------------------------------------------------------------------
 #P Geom=AllCheck Guess=TCheck SCRF=Check GenChk UB3LYP/6-311++G(d,p) F
 req
 ----------------------------------------------------------------------

 Structure from the checkpoint file:  "191-rad.chk"
 -------
 Radical
 -------
 Charge = -1 Multiplicity = 2

                          Input orientation:
 ---------------------------------------------------------------------
 Center     Atomic      Atomic             Coordinates (Angstroms)
 Number     Number       Type             X           Y           Z
 ---------------------------------------------------------------------
      1          6           0        4.890668   -2.930675   -0.305304
      2          6           0        5.647585   -2.071487   -1.067323
      3          6           0        5.104247   -0.858362   -1.522130
      4          6           0        3.559562   -2.603317    0.034444
      5          6           0        2.976297   -1.369742   -0.404682
      6          6           0        3.797164   -0.504018   -1.206947
      7          6           0        2.812981   -3.557998    0.836009
      8          6           0        1.453628   -3.242882    1.190322
      9          6           0        0.863594   -2.011683    0.767149
     10          6           0        1.605975   -1.045979   -0.028927
     11          6           0        0.689813   -4.159436    1.967433
     12          6           0       -0.621964   -3.856611    2.309836
     13          6           0       -0.483113   -1.734428    1.140248
     14          6           0       -1.202842   -2.652930    1.898749
     15          8           0        3.355036   -4.660316    1.217099
     16          8           0        1.034050    0.048437   -0.367676
     17          8           0        1.232264   -5.333918    2.380479
     18          1           0        5.292572   -3.870179    0.049034
     19          1           0        6.670137   -2.322569   -1.327137
     20          1           0        5.717094   -0.203024   -2.123610
     21          8           0        3.250421    0.659784   -1.644362
     22          1           0        2.171281   -5.319178    2.015848
     23          8           0       -1.086938   -0.579235    0.765361
     24          1           0       -2.226321   -2.416871    2.166938
     25          1           0       -1.188126   -4.567302    2.901130
     26          1           0       -0.371657   -0.092645    0.240660
     27          6           0        4.040087    1.540252   -2.443790
     28          1           0        3.394469    2.387915   -2.666081
     29          1           0        4.348606    1.063219   -3.378844
     30          1           0        4.923695    1.889007   -1.900947
 ---------------------------------------------------------------------

 SCF Done:  E(UB3LYP) =  -954.166147868     A.U. after    1 cycles

 Alpha  occ. eigenvalues --  -19.15539 -19.12819 -19.12583 -19.08948 -19.08861
 Alpha  occ. eigenvalues --  -10.24472 -10.24030 -10.23361 -10.23060 -10.23049
 Alpha  occ. eigenvalues --  -10.22021 -10.18554 -10.18187 -10.17897 -10.17785
 Alpha  occ. eigenvalues --  -10.17742 -10.17179 -10.17071 -10.17009 -10.16679
 Alpha  occ. eigenvalues --   -1.07232  -1.05136  -1.04964  -1.00434  -1.00242
 Alpha  occ. eigenvalues --   -0.86492  -0.84715  -0.79240  -0.76434  -0.74889
 Alpha  occ. eigenvalues --   -0.73530  -0.70271  -0.67749  -0.63990  -0.63699
 Alpha  occ. eigenvalues --   -0.59509  -0.57385  -0.55055  -0.53507  -0.51982
 Alpha  occ. eigenvalues --   -0.50808  -0.49640  -0.48603  -0.47198  -0.47089
 Alpha  occ. eigenvalues --   -0.45509  -0.44168  -0.43919  -0.42719  -0.42509
 Alpha  occ. eigenvalues --   -0.40919  -0.40624  -0.40318  -0.40221  -0.39941
 Alpha  occ. eigenvalues --   -0.37759  -0.37103  -0.36883  -0.36255  -0.35775
 Alpha  occ. eigenvalues --   -0.34801  -0.33656  -0.32498  -0.30715  -0.27382
 Alpha  occ. eigenvalues --   -0.25969  -0.25487  -0.24458  -0.23686  -0.21309
 Alpha  occ. eigenvalues --   -0.14626
 Alpha virt. eigenvalues --   -0.04724  -0.02777  -0.00336   0.00499   0.00910
 Alpha virt. eigenvalues --    0.01164   0.01755   0.02070   0.03430   0.03461
 Alpha virt. eigenvalues --    0.03856   0.04189   0.04942   0.05286   0.05303

  Beta  occ. eigenvalues --  -19.15536 -19.12755 -19.12532 -19.08481 -19.08408
  Beta  occ. eigenvalues --  -10.24473 -10.23852 -10.23130 -10.23028 -10.22980
  Beta  occ. eigenvalues --  -10.22021 -10.18504 -10.18112 -10.17883 -10.17803
  Beta  occ. eigenvalues --  -10.17696 -10.17099 -10.16986 -10.16895 -10.16651
  Beta  occ. eigenvalues --   -1.07214  -1.04933  -1.04769  -0.99709  -0.99473
  Beta  occ. eigenvalues --   -0.86240  -0.84563  -0.78846  -0.76267  -0.74708
  Beta  occ. eigenvalues --   -0.73235  -0.70164  -0.67102  -0.63769  -0.63488
  Beta  occ. eigenvalues --   -0.59398  -0.57259  -0.54831  -0.53394  -0.51840
  Beta  occ. eigenvalues --   -0.50702  -0.49447  -0.48502  -0.47131  -0.46941
  Beta  occ. eigenvalues --   -0.45375  -0.44022  -0.43108  -0.42558  -0.42133
  Beta  occ. eigenvalues --   -0.40806  -0.40483  -0.40075  -0.39448  -0.39263
  Beta  occ. eigenvalues --   -0.37664  -0.36815  -0.35911  -0.35633  -0.35066
  Beta  occ. eigenvalues --   -0.34654  -0.33603  -0.31963  -0.30012  -0.25680
  Beta  occ. eigenvalues --   -0.25581  -0.25043  -0.24099  -0.22892  -0.20310
  Beta virt. eigenvalues --   -0.09312  -0.03479  -0.01772  -0.00323   0.00510
  Beta virt. eigenvalues --    0.00922   0.01614   0.01776   0.02080   0.03445
  Beta virt. eigenvalues --    0.03491   0.03868   0.04199   0.05300   0.05324

 Mulliken charges and spin densities:
               1          2
     1  C   -0.250710   0.045138
     2  C   -0.407765   0.035494
     3  C    0.012771   0.067228
     4  C    0.183822   0.013541
     5  C    0.076765   0.024627
     6  C    0.044177   0.017084
     7  C   -0.351073   0.133309
     8  C    0.344996  -0.027393
     9  C    0.675612   0.016869
    10  C   -0.395379   0.096012
    11  C   -0.283520   0.063359
    12  C   -0.072740   0.048832
    13  C   -0.339654   0.040650
    14  C   -0.161632   0.080814
    15  O   -0.501443   0.170218
    16  O   -0.502592   0.164134
    17  O   -0.417993   0.019730
    18  H    0.166084  -0.001940
    19  H    0.197153  -0.002948
    20  H    0.185927  -0.004234
    21  O   -0.164835   0.002231
    22  H    0.360112  -0.003795
    23  O   -0.433299   0.015801
    24  H    0.194339  -0.007046
    25  H    0.195358  -0.004915
    26  H    0.397646  -0.003167
    27  C   -0.275670  -0.000191
    28  H    0.199384  -0.000131
    29  H    0.161349   0.000324
    30  H    0.162812   0.000362
 Sum of Mulliken charges =  -1.00000   1.00000

 Dipole moment (field-independent basis, Debye):
    X=             -4.9152    Y=             13.7923    Z=             -5.6726  Tot=             15.7024
 Quadrupole moment (field-independent basis, Debye-Ang):
   XX=           -126.7630   YY=           -180.2445   ZZ=           -124.3469
   XY=             35.3795   XZ=            -17.3282   YZ=             17.6950

  Exact polarizability: 449.933   1.124 351.270-119.146-110.785 250.563
 Approx polarizability: 486.352 -26.534 410.157-109.910-119.644 273.214

                      1                      2                      3
                      A                      A                      A
 Frequencies --     45.9120                54.4299                97.2962
 Red. masses --      4.5962                 6.1872                 6.1562
 Frc consts  --      0.0057                 0.0108                 0.0343
 IR Inten    --      2.4501                 7.4890                 0.9723

                      4                      5                      6
                      A                      A                      A
 Frequencies --    125.4215               149.0552               163.0708
 Red. masses --      6.0117                 7.2361                 4.8036
 Frc consts  --      0.0557                 0.0947                 0.0753
 IR Inten    --      1.3040                 1.4521                 4.0504

                      7                      8                      9
                      A                      A                      A
 Frequencies --    166.0467               202.2702               262.0279
 Red. masses --      5.5402                 3.3159                 1.8081
 Frc consts  --      0.0900                 0.0799                 0.0731
 IR Inten    --      1.4963                 0.7028                 0.5904

                     10                     11                     12
                      A                      A                      A
 Frequencies --    265.9781               296.5380               312.8324
 Red. masses --      4.2784                 2.8007                 4.3961
 Frc consts  --      0.1783                 0.1451                 0.2535
 IR Inten    --      2.1200                 0.0462                 5.4226

                     13                     14                     15
                      A                      A                      A
 Frequencies --    341.3496               372.8842               400.1327
 Red. masses --      5.5287                 6.6058                 8.8057
 Frc consts  --      0.3795                 0.5412                 0.8307
 IR Inten    --      4.7089                 0.0085                32.4685

                     16                     17                     18
                      A                      A                      A
 Frequencies --    412.7863               426.7146               443.8224
 Red. masses --      6.5183                 7.6838                 8.4732
 Frc consts  --      0.6544                 0.8243                 0.9834
 IR Inten    --      0.0513                14.3489                 4.2101

                     19                     20                     21
                      A                      A                      A
 Frequencies --    454.8379               472.5204               491.7661
 Red. masses --     10.6441                10.5532                 4.4202
 Frc consts  --      1.2974                 1.3883                 0.6298
 IR Inten    --     64.7256                15.1908                 0.4759

                     22                     23                     24
                      A                      A                      A
 Frequencies --    517.8940               523.2990               542.3919
 Red. masses --      9.4546                 5.4736                 4.6780
 Frc consts  --      1.4941                 0.8831                 0.8108
 IR Inten    --      7.8618                29.5054                 8.7774

                     25                     26                     27
                      A                      A                      A
 Frequencies --    602.0513               604.6754               627.9487
 Red. masses --      6.5732                 3.8615                 4.6041
 Frc consts  --      1.4038                 0.8319                 1.0697
 IR Inten    --     14.3709                16.1577                 7.6236

                     28                     29                     30
                      A                      A                      A
 Frequencies --    652.4459               709.4382               711.0304
 Red. masses --      4.9227                 4.2932                 6.5045
 Frc consts  --      1.2346                 1.2731                 1.9375
 IR Inten    --      0.1070                12.0094                62.6899

                     31                     32                     33
                      A                      A                      A
 Frequencies --    734.1365               754.1974               767.9673
 Red. masses --      3.8839                 7.0699                 2.3693
 Frc consts  --      1.2333                 2.3694                 0.8233
 IR Inten    --     16.3368                74.0857                48.4503

                     34                     35                     36
                      A                      A                      A
 Frequencies --    806.3856               817.6739               822.6368
 Red. masses --      3.5423                 7.9992                 1.6732
 Frc consts  --      1.3571                 3.1511                 0.6671
 IR Inten    --     49.7490                84.4486               107.0818

                     37                     38                     39
                      A                      A                      A
 Frequencies --    878.4844               887.6146               890.6375
 Red. masses --      1.4260                 1.0725                 7.5655
 Frc consts  --      0.6484                 0.4979                 3.5358
 IR Inten    --      2.0008               103.5014                43.1006

                     40                     41                     42
                      A                      A                      A
 Frequencies --    913.7714               919.7245               949.0283
 Red. masses --      1.1195                 1.2245                 6.6674
 Frc consts  --      0.5507                 0.6103                 3.5380
 IR Inten    --    108.3719                25.3854                89.8947

                     43                     44                     45
                      A                      A                      A
 Frequencies --    976.3572               982.6908              1053.4835
 Red. masses --      6.3978                 1.2928                 4.2258
 Frc consts  --      3.5933                 0.7356                 2.7632
 IR Inten    --    196.5446                 0.4736               138.2282

                     46                     47                     48
                      A                      A                      A
 Frequencies --   1087.4938              1112.2813              1159.7151
 Red. masses --      3.1928                 1.7710                 1.9215
 Frc consts  --      2.2247                 1.2909                 1.5226
 IR Inten    --    201.0941               166.4014                90.0766

                     49                     50                     51
                      A                      A                      A
 Frequencies --   1162.5171              1177.2652              1201.6169
 Red. masses --      1.2757                 1.2680                 1.4907
 Frc consts  --      1.0157                 1.0354                 1.2681
 IR Inten    --      1.3787                11.1685                 4.5296

                     52                     53                     54
                      A                      A                      A
 Frequencies --   1215.1803              1248.7512              1261.4850
 Red. masses --      2.6037                 3.1186                 3.9377
 Frc consts  --      2.2653                 2.8653                 3.6920
 IR Inten    --      4.9930                24.4185               170.8207

                     55                     56                     57
                      A                      A                      A
 Frequencies --   1270.9665              1274.0714              1297.1951
 Red. masses --      2.4700                 7.3440                 3.8820
 Frc consts  --      2.3508                 7.0238                 3.8488
 IR Inten    --    122.5857                 4.0058               489.8554

                     58                     59                     60
                      A                      A                      A
 Frequencies --   1314.4460              1337.6921              1386.7920
 Red. masses --      3.5953                 7.7099                 5.8062
 Frc consts  --      3.6599                 8.1286                 6.5791
 IR Inten    --    992.5712               376.3887                 7.6805

                     61                     62                     63
                      A                      A                      A
 Frequencies --   1391.7588              1415.0931              1449.4015
 Red. masses --      4.5715                 5.2284                 2.9614
 Frc consts  --      5.2172                 6.1686                 3.6654
 IR Inten    --    521.6194                15.7738                36.0966

                     64                     65                     66
                      A                      A                      A
 Frequencies --   1468.3725              1479.7045              1485.0510
 Red. masses --      1.4255                 2.9890                 1.0452
 Frc consts  --      1.8109                 3.8559                 1.3581
 IR Inten    --     68.4890               842.7962                12.7952

                     67                     68                     69
                      A                      A                      A
 Frequencies --   1494.6046              1500.7174              1514.2603
 Red. masses --      1.3069                 1.6385                 2.7574
 Frc consts  --      1.7200                 2.1742                 3.7251
 IR Inten    --    605.0884               323.1334               253.9568

                     70                     71                     72
                      A                      A                      A
 Frequencies --   1564.5569              1588.3649              1615.7651
 Red. masses --      4.6386                 1.8601                 5.3397
 Frc consts  --      6.6899                 2.7649                 8.2134
 IR Inten    --    297.5623               340.9044                60.5354

                     73                     74                     75
                      A                      A                      A
 Frequencies --   1630.0517              1648.5750              2858.4073
 Red. masses --      5.6455                 2.7131                 1.0745
 Frc consts  --      8.8381                 4.3445                 5.1725
 IR Inten    --     23.3305                27.5223               741.4585

                     76                     77                     78
                      A                      A                      A
 Frequencies --   2935.4733              3014.0796              3077.5169
 Red. masses --      1.0737                 1.0333                 1.1067
 Frc consts  --      5.4513                 5.5307                 6.1754
 IR Inten    --    782.8093               100.4028                51.2790

                     79                     80                     81
                      A                      A                      A
 Frequencies --   3136.2314              3169.3491              3172.3915
 Red. masses --      1.1007                 1.0888                 1.0874
 Frc consts  --      6.3785                 6.4437                 6.4477
 IR Inten    --     29.6305                26.6650                26.9148

                     82                     83                     84
                      A                      A                      A
 Frequencies --   3186.8181              3207.1698              3219.2088
 Red. masses --      1.0943                 1.0918                 1.0910
 Frc consts  --      6.5481                 6.6167                 6.6615
 IR Inten    --     24.9105                14.9158                13.3472

 - Thermochemistry -
 -------------------
 Temperature   298.150 Kelvin.  Pressure   1.00000 Atm.
 Atom     1 has atomic number  6 and mass  12.00000

 Molecular mass:   270.05282 amu.
 Principal axes and moments of inertia in atomic units:
                           1         2         3
     Eigenvalues --  3112.857036319.346809420.03646
           X            0.65031  -0.68619   0.32593
           Y            0.53277   0.71781   0.44822
           Z           -0.54152  -0.11783   0.83239
 This molecule is an asymmetric top.
 Rotational symmetry number  1.
 Warning -- assumption of classical behavior for rotation
           may cause significant error
 Rotational temperatures (Kelvin)      0.02782     0.01371     0.00919
 Rotational constants (GHZ):           0.57977     0.28559     0.19159
 Zero-point vibrational energy     570224.2 (Joules/Mol)
                                  136.28687 (Kcal/Mol)
 Warning -- explicit consideration of  26 degrees of freedom as
           vibrations may cause significant error
 Vibrational temperatures:     66.06    78.31   139.99   180.45   214.46
          (Kelvin)            234.62   238.90   291.02   377.00   382.68
                              426.65   450.10   491.13   536.50   575.70
                              593.91   613.95   638.56   654.41   679.85
                              707.54   745.13   752.91   780.38   866.22
                              869.99   903.48   938.72  1020.72  1023.01
                             1056.26  1085.12  1104.93  1160.21  1176.45
                             1183.59  1263.94  1277.08  1281.43  1314.71
                             1323.28  1365.44  1404.76  1413.87  1515.73
                             1564.66  1600.32  1668.57  1672.60  1693.82
                             1728.86  1748.37  1796.67  1815.00  1828.64
                             1833.10  1866.37  1891.19  1924.64  1995.28
                             2002.43  2036.00  2085.37  2112.66  2128.96
                             2136.66  2150.40  2159.20  2178.68  2251.05
                             2285.30  2324.73  2345.28  2371.93  4112.61
                             4223.49  4336.59  4427.86  4512.34  4559.99
                             4564.36  4585.12  4614.40  4631.72

 Zero-point correction=                           0.217187 (Hartree/Particle)
 Thermal correction to Energy=                    0.232573
 Thermal correction to Enthalpy=                  0.233517
 Thermal correction to Gibbs Free Energy=         0.174192
 Sum of electronic and zero-point Energies=           -953.948961
 Sum of electronic and thermal Energies=              -953.933575
 Sum of electronic and thermal Enthalpies=            -953.932631
 Sum of electronic and thermal Free Energies=         -953.991956

                     E (Thermal)             CV                S
                      KCal/Mol        Cal/Mol-Kelvin    Cal/Mol-Kelvin
 Total                  145.942             62.007            124.860
 Electronic               0.000              0.000              1.377
 Translational            0.889              2.981             42.679
 Rotational               0.889              2.981             33.582
 Vibrational            144.164             56.046             47.222
 Vibration     1          0.595              1.979              4.986
 Vibration     2          0.596              1.976              4.650
 Vibration     3          0.603              1.951              3.508
 Vibration     4          0.610              1.928              3.015
 Vibration     5          0.618              1.904              2.684
 Vibration     6          0.623              1.888              2.514
 Vibration     7          0.624              1.884              2.480
 Vibration     8          0.639              1.837              2.112
 Vibration     9          0.669              1.742              1.648
 Vibration    10          0.672              1.735              1.622
 Vibration    11          0.690              1.680              1.436
 Vibration    12          0.701              1.649              1.347
 Vibration    13          0.721              1.593              1.206
 Vibration    14          0.744              1.528              1.068
 Vibration    15          0.766              1.470              0.962
 Vibration    16          0.777              1.442              0.917
 Vibration    17          0.788              1.412              0.869
 Vibration    18          0.803              1.375              0.815
 Vibration    19          0.813              1.350              0.781
 Vibration    20          0.829              1.311              0.731
 Vibration    21          0.848              1.268              0.679
 Vibration    22          0.873              1.210              0.615
 Vibration    23          0.878              1.198              0.602
 Vibration    24          0.897              1.156              0.560
 Vibration    25          0.960              1.027              0.446
 Vibration    26          0.963              1.022              0.442

                           ! Non-Optimized Parameters !
 Normal termination of Gaussian 16 at Sun Feb 11 00:46:10 2024.
