 Q-Chem 5.4, Q-Chem, Inc., Pleasanton, CA (2021)
 Q-Chem 5.4.0 for Intel X86 EM64T Linux

User input:
--------------------------------------------------------------
$molecule
0 1
C                 -1.5521870000      2.7893590000     -0.0577920000
C                 -2.8179610000      2.2054580000     -0.0252240000
C                 -2.9237910000      0.7968180000      0.0444900000
C                 -0.3913950000      2.0154070000     -0.0236540000
C                 -0.4960600000      0.6222840000      0.0448570000
C                 -1.7594550000      0.0304060000      0.0782740000
C                  0.9428570000      2.6710660000     -0.0597520000
C                  2.1606650000      1.8024470000     -0.0219870000
C                  2.0591710000      0.4519310000      0.0429650000
C                  0.7253580000     -0.2251490000      0.0814130000
O                  1.0477210000      3.8878130000     -0.1187800000
O                  0.6475400000     -1.4439080000      0.1412200000
C                  3.4901810000      2.5033570000     -0.0596490000
C                  3.2690720000     -0.4396290000      0.0817670000
H                 -1.4471460000      3.8667950000     -0.1107330000
C                 -4.0510420000      3.0721980000     -0.0643680000
C                 -4.2725480000      0.1239680000      0.0821350000
H                  3.3509290000      3.5816910000     -0.1060150000
H                  4.0749320000      2.1864270000     -0.9292800000
H                  4.0845880000      2.2626350000      0.8276160000
H                  3.8934080000     -0.2140590000      0.9524170000
H                  3.8939840000     -0.2899790000     -0.8046560000
H                  2.9704860000     -1.4851650000      0.1270950000
H                 -1.8165670000     -1.0506210000      0.1314510000
H                 -3.7858010000      4.1290700000     -0.1118950000
H                 -4.6757580000      2.9201810000      0.8218310000
H                 -4.6746660000      2.8412400000     -0.9342590000
H                 -4.8573060000      0.4479010000      0.9492940000
H                 -4.1681660000     -0.9605260000      0.1328120000
H                 -4.8649110000      0.3650180000     -0.8066000000
$end
$rem
MAX_SCF_CYCLES=200
BASIS  =  6-311++G(d,p)
GUI  =  2
JOB_TYPE  =  SP
METHOD  =  B3LYP
SOLVENT_METHOD = PCM
$end
$pcm
theory = CPCM
$end
$solvent
dielectric 37.219
opticaldielectric 1.43
$end

--------------------------------------------------------------

             Standard Nuclear Orientation (Angstroms)
    I     Atom           X                Y                Z
 ----------------------------------------------------------------
    1      C      -1.5521870000     2.7893590000    -0.0577920000
    2      C      -2.8179610000     2.2054580000    -0.0252240000
    3      C      -2.9237910000     0.7968180000     0.0444900000
    4      C      -0.3913950000     2.0154070000    -0.0236540000
    5      C      -0.4960600000     0.6222840000     0.0448570000
    6      C      -1.7594550000     0.0304060000     0.0782740000
    7      C       0.9428570000     2.6710660000    -0.0597520000
    8      C       2.1606650000     1.8024470000    -0.0219870000
    9      C       2.0591710000     0.4519310000     0.0429650000
   10      C       0.7253580000    -0.2251490000     0.0814130000
   11      O       1.0477210000     3.8878130000    -0.1187800000
   12      O       0.6475400000    -1.4439080000     0.1412200000
   13      C       3.4901810000     2.5033570000    -0.0596490000
   14      C       3.2690720000    -0.4396290000     0.0817670000
   15      H      -1.4471460000     3.8667950000    -0.1107330000
   16      C      -4.0510420000     3.0721980000    -0.0643680000
   17      C      -4.2725480000     0.1239680000     0.0821350000
   18      H       3.3509290000     3.5816910000    -0.1060150000
   19      H       4.0749320000     2.1864270000    -0.9292800000
   20      H       4.0845880000     2.2626350000     0.8276160000
   21      H       3.8934080000    -0.2140590000     0.9524170000
   22      H       3.8939840000    -0.2899790000    -0.8046560000
   23      H       2.9704860000    -1.4851650000     0.1270950000
   24      H      -1.8165670000    -1.0506210000     0.1314510000
   25      H      -3.7858010000     4.1290700000    -0.1118950000
   26      H      -4.6757580000     2.9201810000     0.8218310000
   27      H      -4.6746660000     2.8412400000    -0.9342590000
   28      H      -4.8573060000     0.4479010000     0.9492940000
   29      H      -4.1681660000    -0.9605260000     0.1328120000
   30      H      -4.8649110000     0.3650180000    -0.8066000000
 ----------------------------------------------------------------

    8    -692.5869672799      7.83e-06  Convergence criterion met
 Total energy in the final basis set =     -692.5869672799

                    Orbital Energies (a.u.)
 --------------------------------------------------------------

 Alpha MOs
 -- Occupied --
-19.1301 -19.1301 -10.2782 -10.2782 -10.2085 -10.2078 -10.2004 -10.2000
-10.1984 -10.1979 -10.1881 -10.1881 -10.1683 -10.1683 -10.1682 -10.1682
 -1.0643  -1.0625  -0.8879  -0.8499  -0.8038  -0.7828  -0.7450  -0.7201
 -0.7187  -0.6725  -0.6564  -0.6173  -0.5925  -0.5785  -0.5385  -0.5012
 -0.4983  -0.4687  -0.4615  -0.4562  -0.4449  -0.4438  -0.4407  -0.4221
 -0.4171  -0.4118  -0.4089  -0.4033  -0.3952  -0.3948  -0.3925  -0.3822
 -0.3792  -0.3586  -0.3573  -0.3541  -0.2875  -0.2820  -0.2703  -0.2683
 -0.2567

          Ground-State Mulliken Net Atomic Charges

     Atom                 Charge (a.u.)
  ----------------------------------------
      1 C                    -0.232539
      2 C                     0.279531
      3 C                     0.274428
      4 C                     0.125541
      5 C                     0.124612
      6 C                    -0.232968
      7 C                    -0.628966
      8 C                     0.440789
      9 C                     0.444298
     10 C                    -0.631186
     11 O                    -0.304713
     12 O                    -0.304166
     13 C                    -0.437749
     14 C                    -0.436495
     15 H                     0.157841
     16 C                    -0.506215
     17 C                    -0.509485
     18 H                     0.196945
     19 H                     0.184486
     20 H                     0.183559
     21 H                     0.184453
     22 H                     0.183429
     23 H                     0.197654
     24 H                     0.158086
     25 H                     0.191884
     26 H                     0.175856
     27 H                     0.176729
     28 H                     0.176722
     29 H                     0.191380
     30 H                     0.176260
  ----------------------------------------
  Sum of atomic charges =     0.000000

                    Cartesian Multipole Moments
 -----------------------------------------------------------------
    Charge (ESU x 10^10)
                 0.0000
    Dipole Moment (Debye)
         X      -2.1080      Y       0.1586      Z      -0.0035
       Tot       2.1139
    Quadrupole Moments (Debye-Ang)
        XX     -66.0114     XY      -6.2183     YY    -111.9290
        XZ       0.0484     YZ       0.8349     ZZ     -95.1459

 Total job time:  74.78s(wall), 296.91s(cpu)
        *  Thank you very much for using Q-Chem.  Have a nice day.  *
