 Q-Chem 5.4, Q-Chem, Inc., Pleasanton, CA (2021)
 Q-Chem 5.4.0 for Intel X86 EM64T Linux

User input:
--------------------------------------------------------------
$molecule
-2 1
C                 -1.5853080000      1.9274910000     -4.7082420000
C                 -1.5189170000      0.5729160000     -4.9337820000
C                 -1.2001710000     -0.3163790000     -3.8663150000
C                 -1.3429660000      2.4845870000     -3.4139360000
C                 -1.0229660000      1.5825490000     -2.3292860000
C                 -0.9614640000      0.1968740000     -2.6070730000
C                 -1.4079520000      3.8647960000     -3.1798530000
C                 -0.7631220000      2.0513330000     -0.9828080000
C                 -1.1782300000      4.3823440000     -1.8823390000
C                 -0.8666100000      3.4899920000     -0.7811840000
C                 -1.2805970000      5.8398380000     -1.6754750000
C                 -1.0765350000      6.3225310000     -0.3757090000
C                 -0.7843060000      5.4506500000      0.6947100000
C                 -0.6798980000      4.0990510000      0.4982660000
O                 -1.7071950000      4.7014600000     -4.2288140000
O                 -0.4610760000      1.2273670000     -0.0489550000
H                 -1.8251210000      2.6136960000     -5.5131950000
H                 -1.7082750000      0.1781380000     -5.9306720000
H                 -1.1444570000     -1.3878990000     -4.0461910000
H                 -0.7128290000     -0.4495810000     -1.7714060000
H                 -0.6434950000      5.8387590000      1.7004660000
O                 -1.5579150000      6.6299450000     -2.6757430000
O                 -0.5105920000      3.2986260000      1.6605340000
C                  0.6571810000      2.6592350000      1.8657940000
C                  0.4477750000      1.5032510000      2.8178270000
O                  1.7323590000      2.9927320000      1.4230510000
H                 -1.1529820000      7.3942250000     -0.2142300000
H                 -1.6980730000      5.6271860000     -3.7930090000
H                 -0.0273760000      0.7160010000      2.2277960000
H                 -0.2249690000      1.7874440000      3.6320660000
H                  1.4069430000      1.1637410000      3.2120420000
$end
$rem
MAX_SCF_CYCLES=200
BASIS  =  6-311++G(d,p)
GUI  =  2
JOB_TYPE  =  SP
METHOD  =  B3LYP
SOLVENT_METHOD = PCM
$end
$pcm
theory = CPCM
$end
$solvent
dielectric 37.219
opticaldielectric 1.43
$end

--------------------------------------------------------------

             Standard Nuclear Orientation (Angstroms)
    I     Atom           X                Y                Z
 ----------------------------------------------------------------
    1      C      -1.5853080000     1.9274910000    -4.7082420000
    2      C      -1.5189170000     0.5729160000    -4.9337820000
    3      C      -1.2001710000    -0.3163790000    -3.8663150000
    4      C      -1.3429660000     2.4845870000    -3.4139360000
    5      C      -1.0229660000     1.5825490000    -2.3292860000
    6      C      -0.9614640000     0.1968740000    -2.6070730000
    7      C      -1.4079520000     3.8647960000    -3.1798530000
    8      C      -0.7631220000     2.0513330000    -0.9828080000
    9      C      -1.1782300000     4.3823440000    -1.8823390000
   10      C      -0.8666100000     3.4899920000    -0.7811840000
   11      C      -1.2805970000     5.8398380000    -1.6754750000
   12      C      -1.0765350000     6.3225310000    -0.3757090000
   13      C      -0.7843060000     5.4506500000     0.6947100000
   14      C      -0.6798980000     4.0990510000     0.4982660000
   15      O      -1.7071950000     4.7014600000    -4.2288140000
   16      O      -0.4610760000     1.2273670000    -0.0489550000
   17      H      -1.8251210000     2.6136960000    -5.5131950000
   18      H      -1.7082750000     0.1781380000    -5.9306720000
   19      H      -1.1444570000    -1.3878990000    -4.0461910000
   20      H      -0.7128290000    -0.4495810000    -1.7714060000
   21      H      -0.6434950000     5.8387590000     1.7004660000
   22      O      -1.5579150000     6.6299450000    -2.6757430000
   23      O      -0.5105920000     3.2986260000     1.6605340000
   24      C       0.6571810000     2.6592350000     1.8657940000
   25      C       0.4477750000     1.5032510000     2.8178270000
   26      O       1.7323590000     2.9927320000     1.4230510000
   27      H      -1.1529820000     7.3942250000    -0.2142300000
   28      H      -1.6980730000     5.6271860000    -3.7930090000
   29      H      -0.0273760000     0.7160010000     2.2277960000
   30      H      -0.2249690000     1.7874440000     3.6320660000
   31      H       1.4069430000     1.1637410000     3.2120420000
 ----------------------------------------------------------------

    9    -992.4151487101      4.62e-06  Convergence criterion met
 Total energy in the final basis set =     -992.4151487101

                    Orbital Energies (a.u.)
 --------------------------------------------------------------

 Alpha MOs
 -- Occupied --
-19.1538 -19.1061 -19.0980 -19.0539 -19.0339 -10.2980 -10.2027 -10.2014
-10.1966 -10.1926 -10.1591 -10.1587 -10.1571 -10.1563 -10.1557 -10.1549
-10.1548 -10.1541 -10.1502 -10.1472 -10.1327  -1.0967  -1.0178  -1.0161
 -0.9619  -0.9561  -0.8406  -0.8206  -0.7713  -0.7442  -0.7357  -0.7177
 -0.7001  -0.6593  -0.6172  -0.6083  -0.5956  -0.5573  -0.5356  -0.5189
 -0.4947  -0.4875  -0.4752  -0.4691  -0.4540  -0.4515  -0.4401  -0.4288
 -0.4179  -0.4070  -0.4050  -0.3987  -0.3971  -0.3818  -0.3771  -0.3720
 -0.3642  -0.3626  -0.3584  -0.3484  -0.3404  -0.3299  -0.3246  -0.3158
 -0.3046  -0.2904  -0.2761  -0.2554  -0.2388  -0.2305  -0.2261  -0.2079
 -0.1890  -0.1262

          Ground-State Mulliken Net Atomic Charges

     Atom                 Charge (a.u.)
  ----------------------------------------
      1 C                    -0.220684
      2 C                    -0.465672
      3 C                    -0.410266
      4 C                     0.292402
      5 C                     0.313227
      6 C                    -0.119215
      7 C                    -0.303824
      8 C                    -0.241261
      9 C                     0.643950
     10 C                     0.467895
     11 C                    -0.569765
     12 C                    -0.280817
     13 C                     0.014317
     14 C                    -0.557931
     15 O                    -0.534247
     16 O                    -0.599708
     17 H                     0.174990
     18 H                     0.179633
     19 H                     0.185060
     20 H                     0.145738
     21 H                     0.190019
     22 O                    -0.659849
     23 O                    -0.043329
     24 C                     0.103663
     25 C                    -0.470203
     26 O                    -0.345711
     27 H                     0.166508
     28 H                     0.414688
     29 H                     0.199405
     30 H                     0.172409
     31 H                     0.158580
  ----------------------------------------
  Sum of atomic charges =    -2.000000

                    Cartesian Multipole Moments
 -----------------------------------------------------------------
    Charge (ESU x 10^10)
                -9.6064
    Dipole Moment (Debye)
         X       7.1057      Y     -36.1451      Z      16.0020
       Tot      40.1624
    Quadrupole Moments (Debye-Ang)
        XX    -153.0906     XY      34.8263     YY    -309.3439
        XZ     -26.4011     YZ      72.4580     ZZ    -181.3403

 Total job time:  101.79s(wall), 476.50s(cpu)
        *  Thank you very much for using Q-Chem.  Have a nice day.  *
