 Q-Chem 5.4, Q-Chem, Inc., Pleasanton, CA (2021)
 Q-Chem 5.4.0 for Intel X86 EM64T Linux

User input:
--------------------------------------------------------------
$molecule
0 1
C                  5.7445380000     -5.2911960000      1.3745770000
C                  6.6991810000     -5.1852120000      0.3727110000
C                  6.5885230000     -4.2181620000     -0.6397380000
C                  4.6456770000     -4.4276110000      1.3919060000
C                  4.5210730000     -3.4549280000      0.3857960000
C                  5.4891410000     -3.3594910000     -0.6162070000
C                  3.6236370000     -4.5446350000      2.4683260000
C                  2.4824190000     -3.5955450000      2.4255910000
C                  2.3609830000     -2.6669220000      1.4673230000
C                  3.3583610000     -2.5188500000      0.3782000000
O                  3.7004180000     -5.3777590000      3.3574530000
O                  3.2151940000     -1.6614070000     -0.4783340000
H                  5.8313280000     -6.0376540000      2.1548370000
H                  7.5477480000     -5.8620450000      0.3707460000
H                  1.7541320000     -3.7046870000      3.2220630000
H                  1.5278570000     -1.9730190000      1.4349360000
C                  7.6360170000     -4.1182990000     -1.7197750000
H                  5.3643570000     -2.5986100000     -1.3780870000
H                  7.7132390000     -5.0558350000     -2.2786810000
H                  8.6221950000     -3.9148210000     -1.2915310000
H                  7.4043010000     -3.3212160000     -2.4276630000
$end

$rem
BASIS  =  6-311++G(d,p)
GUI  =  2
JOB_TYPE  =  SP
METHOD  =  B3LYP
SCF_CONVERGENCE  = 8
SOLVENT_METHOD = sm12
$end

$smx
solvent dimethylformamide
charges CM5
$end

--------------------------------------------------------------

             Standard Nuclear Orientation (Angstroms)
    I     Atom           X                Y                Z
 ----------------------------------------------------------------
    1      C       5.7445380000    -5.2911960000     1.3745770000
    2      C       6.6991810000    -5.1852120000     0.3727110000
    3      C       6.5885230000    -4.2181620000    -0.6397380000
    4      C       4.6456770000    -4.4276110000     1.3919060000
    5      C       4.5210730000    -3.4549280000     0.3857960000
    6      C       5.4891410000    -3.3594910000    -0.6162070000
    7      C       3.6236370000    -4.5446350000     2.4683260000
    8      C       2.4824190000    -3.5955450000     2.4255910000
    9      C       2.3609830000    -2.6669220000     1.4673230000
   10      C       3.3583610000    -2.5188500000     0.3782000000
   11      O       3.7004180000    -5.3777590000     3.3574530000
   12      O       3.2151940000    -1.6614070000    -0.4783340000
   13      H       5.8313280000    -6.0376540000     2.1548370000
   14      H       7.5477480000    -5.8620450000     0.3707460000
   15      H       1.7541320000    -3.7046870000     3.2220630000
   16      H       1.5278570000    -1.9730190000     1.4349360000
   17      C       7.6360170000    -4.1182990000    -1.7197750000
   18      H       5.3643570000    -2.5986100000    -1.3780870000
   19      H       7.7132390000    -5.0558350000    -2.2786810000
   20      H       8.6221950000    -3.9148210000    -1.2915310000
   21      H       7.4043010000    -3.3212160000    -2.4276630000
 ----------------------------------------------------------------

   15    -574.5860895998      2.12e-09  Convergence criterion met
 Total energy in the final basis set =     -574.6044795619

                    Orbital Energies (a.u.)
 --------------------------------------------------------------

 Alpha MOs
 -- Occupied --
-19.1340 -19.1325 -10.2825 -10.2813 -10.2104 -10.2096 -10.2075 -10.2068
-10.2050 -10.1971 -10.1942 -10.1942 -10.1703  -1.0662  -1.0639  -0.8909
 -0.8423  -0.7927  -0.7767  -0.7155  -0.6916  -0.6472  -0.6226  -0.5908
 -0.5382  -0.5218  -0.5068  -0.4764  -0.4599  -0.4574  -0.4529  -0.4486
 -0.4274  -0.4254  -0.4201  -0.4178  -0.3921  -0.3743  -0.3680  -0.3631
 -0.3076  -0.2863  -0.2788  -0.2753  -0.2696

          Ground-State Mulliken Net Atomic Charges

     Atom                 Charge (a.u.)
  ----------------------------------------
      1 C                    -0.060043
      2 C                     0.333603
      3 C                     0.866403
      4 C                    -0.423566
      5 C                    -0.510141
      6 C                    -0.618804
      7 C                    -1.562538
      8 C                     0.822841
      9 C                     0.593859
     10 C                    -1.183748
     11 O                    -0.312753
     12 O                    -0.308592
     13 H                     0.189888
     14 H                     0.304918
     15 H                     0.320649
     16 H                     0.323707
     17 C                     0.442269
     18 H                     0.117873
     19 H                     0.214800
     20 H                     0.215162
     21 H                     0.234211
  ----------------------------------------
  Sum of atomic charges =     0.000000

                    Cartesian Multipole Moments
 -----------------------------------------------------------------
    Charge (ESU x 10^10)
                 0.0000
    Dipole Moment (Debye)
         X       2.2055      Y      -0.5711      Z      -1.3735
       Tot       2.6602
    Quadrupole Moments (Debye-Ang)
        XX     -42.2091     XY     -14.9763     YY     -77.5077
        XZ     -13.0672     YZ      14.6272     ZZ     -82.0949

 Total job time:  251.54s(wall), 1949.82s(cpu)
        *  Thank you very much for using Q-Chem.  Have a nice day.  *
