 Q-Chem 5.4, Q-Chem, Inc., Pleasanton, CA (2021)
 Q-Chem 5.4.0 for Intel X86 EM64T Linux

User input:
--------------------------------------------------------------
$molecule
0 1
I                 -3.3692520000     -1.0643850000     -0.1527130000
C                 -1.4119390000     -0.3340070000     -0.0622530000
C                 -1.0789590000      0.9714770000     -0.0284220000
I                 -2.4466600000      2.5529750000     -0.0588390000
C                  0.3589140000      1.4069810000      0.0364080000
O                  0.6574130000      2.5784800000      0.0667690000
C                  1.4119360000      0.3340230000      0.0622210000
C                  1.0789850000     -0.9714940000      0.0283950000
I                  2.4466410000     -2.5529900000      0.0589170000
C                 -0.3589220000     -1.4069850000     -0.0365230000
O                 -0.6574500000     -2.5784870000     -0.0667360000
I                  3.3692910000      1.0644130000      0.1527750000
$end

$rem
BASIS  =  6-311++G(d,p)
GUI  =  2
JOB_TYPE  =  SP
METHOD  =  B3LYP
SCF_CONVERGENCE  = 8
SOLVENT_METHOD = sm12
$end

$smx
solvent dimethylformamide
charges CM5
$end

--------------------------------------------------------------

             Standard Nuclear Orientation (Angstroms)
    I     Atom           X                Y                Z
 ----------------------------------------------------------------
    1      I      -3.3692520000    -1.0643850000    -0.1527130000
    2      C      -1.4119390000    -0.3340070000    -0.0622530000
    3      C      -1.0789590000     0.9714770000    -0.0284220000
    4      I      -2.4466600000     2.5529750000    -0.0588390000
    5      C       0.3589140000     1.4069810000     0.0364080000
    6      O       0.6574130000     2.5784800000     0.0667690000
    7      C       1.4119360000     0.3340230000     0.0622210000
    8      C       1.0789850000    -0.9714940000     0.0283950000
    9      I       2.4466410000    -2.5529900000     0.0589170000
   10      C      -0.3589220000    -1.4069850000    -0.0365230000
   11      O      -0.6574500000    -2.5784870000    -0.0667360000
   12      I       3.3692910000     1.0644130000     0.1527750000
 ----------------------------------------------------------------

   14  -28057.1966109832      6.06e-09  Convergence criterion met
 Total energy in the final basis set =   -28057.2161780999

                    Orbital Energies (a.u.)
 --------------------------------------------------------------

 Alpha MOs
 -- Occupied --
***********************************-176.3243-176.3243-176.3241-176.3241
********-165.7281-165.7280-165.7280-165.7261-165.7261-165.7259-165.7259
********-165.7257-165.7255-165.7255 -35.8207 -35.8207 -35.8206 -35.8206
-31.3141 -31.3141 -31.3139 -31.3139 -31.3082 -31.3082 -31.3080 -31.3080
-31.3073 -31.3073 -31.3072 -31.3072 -22.9646 -22.9646 -22.9644 -22.9644
-22.9633 -22.9633 -22.9631 -22.9631 -22.9627 -22.9627 -22.9626 -22.9626
-22.9586 -22.9586 -22.9586 -22.9586 -22.9584 -22.9584 -22.9584 -22.9584
-19.1679 -19.1679 -10.3245 -10.3245 -10.2779 -10.2779 -10.2772 -10.2772
 -6.3700  -6.3700  -6.3699  -6.3699  -4.7827  -4.7827  -4.7826  -4.7826
 -4.7683  -4.7683  -4.7681  -4.7681  -4.7664  -4.7664  -4.7661  -4.7661
 -2.0489  -2.0489  -2.0487  -2.0487  -2.0442  -2.0442  -2.0440  -2.0440
 -2.0427  -2.0427  -2.0426  -2.0426  -2.0303  -2.0303  -2.0302  -2.0302
 -2.0301  -2.0301  -2.0300  -2.0300  -1.1076  -1.1057  -0.9031  -0.8463
 -0.7548  -0.7267  -0.7031  -0.6616  -0.6592  -0.6126  -0.5929  -0.5691
 -0.5027  -0.4920  -0.4888  -0.4543  -0.4328  -0.4267  -0.4192  -0.3980
 -0.3811  -0.3640  -0.3241  -0.3142  -0.3077  -0.2996  -0.2991  -0.2964
 -0.2796  -0.2695  -0.2640  -0.2584

          Ground-State Mulliken Net Atomic Charges

     Atom                 Charge (a.u.)
  ----------------------------------------
      1 I                     0.169569
      2 C                     0.868004
      3 C                     0.853228
      4 I                     0.173093
      5 C                    -1.951174
      6 O                    -0.112917
      7 C                     0.868104
      8 C                     0.853070
      9 I                     0.173120
     10 C                    -1.950742
     11 O                    -0.112903
     12 I                     0.169549
  ----------------------------------------
  Sum of atomic charges =     0.000000

                    Cartesian Multipole Moments
 -----------------------------------------------------------------
    Charge (ESU x 10^10)
                -0.0000
    Dipole Moment (Debye)
         X      -0.0000      Y      -0.0004      Z      -0.0001
       Tot       0.0004
    Quadrupole Moments (Debye-Ang)
        XX    -142.6224     XY      -6.1614     YY    -165.0043
        XZ       0.4846     YZ      -0.3689     ZZ    -156.9602

 Total job time:  160.78s(wall), 1022.09s(cpu)
        *  Thank you very much for using Q-Chem.  Have a nice day.  *
