 Gaussian 16, Revision A.03,
 Gaussian 16:  ES64L-G16RevA.03 25-Dec-2016

 ----------------------------------------------------------------
 #P UB3LYP/6-311++G(d,p) SCRF=(PCM,Solvent=n,n-DiMethylFormamide)
 ----------------------------------------------------------------

 ------------------
 Quinone PCM in DMF
 ------------------
 Symbolic Z-matrix:
 Charge =  0 Multiplicity = 1

                         Standard orientation:
 ---------------------------------------------------------------------
 Center     Atomic      Atomic             Coordinates (Angstroms)
 Number     Number       Type             X           Y           Z
 ---------------------------------------------------------------------
      1          6           0        2.591921   -1.726912    0.481259
      2          8           0        1.317865   -1.514451   -0.158750
      3          6           0        0.682845   -0.334117   -0.047454
      4          6           0       -0.682889   -0.334060    0.047307
      5          8           0       -1.317987   -1.514362    0.158350
      6          6           0       -2.592601   -1.726465   -0.480644
      7          6           0       -1.427964    0.946870    0.179031
      8          8           0       -2.627689    0.973057    0.409528
      9          6           0       -0.663139    2.216566    0.067672
     10          6           0        0.663876    2.216499   -0.066963
     11          6           0        1.428216    0.946680   -0.179207
     12          8           0        2.627824    0.972416   -0.410375
     13          1           0        2.598740   -1.287574    1.481755
     14          1           0        2.688671   -2.808899    0.559296
     15          1           0        3.403077   -1.308746   -0.110803
     16          1           0       -2.689713   -2.808435   -0.558369
     17          1           0       -2.600117   -1.287251   -1.481172
     18          1           0       -3.403165   -1.308001    0.112039
     19          1           0       -1.254193    3.122679    0.134926
     20          1           0        1.255008    3.122593   -0.133700
 ---------------------------------------------------------------------

 SCF Done:  E(UB3LYP) =  -610.676509801     A.U. after   14 cycles

 The electronic state is 1-A.
 Alpha  occ. eigenvalues --  -19.17137 -19.17134 -19.14501 -19.14500 -10.29326
 Alpha  occ. eigenvalues --  -10.29324 -10.26410 -10.26346 -10.22535 -10.22535
 Alpha  occ. eigenvalues --  -10.21490 -10.21404  -1.10361  -1.08738  -1.07075
 Alpha  occ. eigenvalues --   -1.06366  -0.86339  -0.79893  -0.73762  -0.70721
 Alpha  occ. eigenvalues --   -0.69935  -0.62945  -0.60825  -0.55279  -0.53293
 Alpha  occ. eigenvalues --   -0.53074  -0.49702  -0.49649  -0.47653  -0.47078
 Alpha  occ. eigenvalues --   -0.46261  -0.45291  -0.43942  -0.42440  -0.42433
 Alpha  occ. eigenvalues --   -0.41830  -0.38153  -0.37253  -0.34320  -0.33647
 Alpha  occ. eigenvalues --   -0.31495  -0.28559  -0.28557  -0.24541
 Alpha virt. eigenvalues --   -0.13639  -0.02410  -0.00566  -0.00502   0.00730
 Alpha virt. eigenvalues --    0.00741   0.02060   0.02680   0.03006   0.03178
 Alpha virt. eigenvalues --    0.04115   0.05165   0.05767   0.06952   0.07170

  Beta  occ. eigenvalues --  -19.17137 -19.17134 -19.14501 -19.14500 -10.29326
  Beta  occ. eigenvalues --  -10.29324 -10.26410 -10.26346 -10.22535 -10.22535
  Beta  occ. eigenvalues --  -10.21490 -10.21404  -1.10361  -1.08738  -1.07075
  Beta  occ. eigenvalues --   -1.06366  -0.86339  -0.79893  -0.73762  -0.70721
  Beta  occ. eigenvalues --   -0.69935  -0.62945  -0.60825  -0.55279  -0.53293
  Beta  occ. eigenvalues --   -0.53074  -0.49702  -0.49649  -0.47653  -0.47078
  Beta  occ. eigenvalues --   -0.46261  -0.45291  -0.43942  -0.42440  -0.42433
  Beta  occ. eigenvalues --   -0.41830  -0.38153  -0.37253  -0.34320  -0.33647
  Beta  occ. eigenvalues --   -0.31495  -0.28559  -0.28557  -0.24541
  Beta virt. eigenvalues --   -0.13639  -0.02410  -0.00566  -0.00502   0.00730
  Beta virt. eigenvalues --    0.00741   0.02060   0.02680   0.03006   0.03178
  Beta virt. eigenvalues --    0.04115   0.05165   0.05767   0.06952   0.07170

 Mulliken charges and spin densities:
               1          2
     1  C   -0.295793   0.000000
     2  O   -0.195147   0.000000
     3  C    0.099363   0.000000
     4  C    0.102180  -0.000000
     5  O   -0.195247   0.000000
     6  C   -0.295718   0.000000
     7  C   -0.207028   0.000000
     8  O   -0.282157  -0.000000
     9  C    0.107867  -0.000000
    10  C    0.107671  -0.000000
    11  C   -0.207188   0.000000
    12  O   -0.282228  -0.000000
    13  H    0.171980   0.000000
    14  H    0.160773  -0.000000
    15  H    0.192359  -0.000000
    16  H    0.160814  -0.000000
    17  H    0.172013   0.000000
    18  H    0.192364  -0.000000
    19  H    0.246560   0.000000
    20  H    0.246562   0.000000
 Sum of Mulliken charges =  -0.00000  -0.00000

 Dipole moment (field-independent basis, Debye):
    X=             -0.0020    Y=              0.4829    Z=              0.0037  Tot=              0.4829
 Quadrupole moment (field-independent basis, Debye-Ang):
   XX=            -76.3475   YY=            -62.0497   ZZ=            -69.1171
   XY=              0.0048   XZ=              8.0624   YZ=             -0.0004

 Normal termination of Gaussian 16 at Wed Jan 24 22:48:56 2024.
