 Gaussian 16, Revision A.03,
 Gaussian 16:  ES64L-G16RevA.03 25-Dec-2016

 --------------------------------------
 #P UB3LYP/6-311++G(d,p) nosym opt freq
 --------------------------------------

 --------
 Oxidized
 --------
 Symbolic Z-matrix:
 Charge =  0 Multiplicity = 1

 SCF Done:  E(UB3LYP) =  -610.666459870     A.U. after   15 cycles
 Optimization completed.
    -- Stationary point found.
 Normal termination of Gaussian 16 at Wed Jan 10 04:51:27 2024.

 ----------------------------------------------------------------------
 #P Geom=AllCheck Guess=TCheck SCRF=Check GenChk UB3LYP/6-311++G(d,p) F
 req
 ----------------------------------------------------------------------

 Structure from the checkpoint file:  "084.chk"
 --------
 Oxidized
 --------
 Charge =  0 Multiplicity = 1

                          Input orientation:
 ---------------------------------------------------------------------
 Center     Atomic      Atomic             Coordinates (Angstroms)
 Number     Number       Type             X           Y           Z
 ---------------------------------------------------------------------
      1          6           0        2.964198   -0.584428    0.489165
      2          8           0        1.780370    0.232673    0.583335
      3          6           0        0.568910   -0.280464    0.304263
      4          6           0       -0.348936    0.517483   -0.324266
      5          8           0        0.042732    1.730700   -0.752628
      6          6           0       -0.852879    2.858286   -0.686495
      7          6           0       -1.699457   -0.008915   -0.659331
      8          8           0       -2.486424    0.626826   -1.344656
      9          6           0       -2.062472   -1.366019   -0.173558
     10          6           0       -1.181351   -2.128011    0.476127
     11          6           0        0.179809   -1.627511    0.801698
     12          8           0        0.931263   -2.300940    1.490880
     13          1           0        2.922338   -1.223052   -0.396535
     14          1           0        3.785387    0.123717    0.387560
     15          1           0        3.090461   -1.196431    1.379605
     16          1           0       -0.204571    3.732666   -0.722356
     17          1           0       -1.408184    2.854897    0.254593
     18          1           0       -1.546782    2.857946   -1.524288
     19          1           0       -3.068463   -1.691486   -0.412223
     20          1           0       -1.405951   -3.127939    0.829110
 ---------------------------------------------------------------------

 SCF Done:  E(UB3LYP) =  -610.666459870     A.U. after    1 cycles

 Alpha  occ. eigenvalues --  -19.16780 -19.16777 -19.14150 -19.14148 -10.29048
 Alpha  occ. eigenvalues --  -10.29046 -10.26240 -10.26175 -10.22801 -10.22801
 Alpha  occ. eigenvalues --  -10.21891 -10.21805  -1.10032  -1.08395  -1.06698
 Alpha  occ. eigenvalues --   -1.06005  -0.86468  -0.79990  -0.73755  -0.70820
 Alpha  occ. eigenvalues --   -0.70018  -0.62965  -0.60846  -0.55162  -0.53250
 Alpha  occ. eigenvalues --   -0.52940  -0.49912  -0.49582  -0.47333  -0.47048
 Alpha  occ. eigenvalues --   -0.46102  -0.45075  -0.43903  -0.42746  -0.42220
 Alpha  occ. eigenvalues --   -0.41685  -0.38146  -0.37083  -0.33958  -0.33330
 Alpha  occ. eigenvalues --   -0.31678  -0.28236  -0.28191  -0.24350
 Alpha virt. eigenvalues --   -0.13515  -0.02672  -0.00816  -0.00489   0.00121
 Alpha virt. eigenvalues --    0.00527   0.01676   0.02660   0.02858   0.02865
 Alpha virt. eigenvalues --    0.04253   0.04957   0.05503   0.06531   0.07144

  Beta  occ. eigenvalues --  -19.16780 -19.16777 -19.14150 -19.14148 -10.29048
  Beta  occ. eigenvalues --  -10.29046 -10.26240 -10.26175 -10.22801 -10.22801
  Beta  occ. eigenvalues --  -10.21891 -10.21805  -1.10032  -1.08395  -1.06698
  Beta  occ. eigenvalues --   -1.06005  -0.86468  -0.79990  -0.73755  -0.70820
  Beta  occ. eigenvalues --   -0.70018  -0.62965  -0.60846  -0.55162  -0.53250
  Beta  occ. eigenvalues --   -0.52940  -0.49912  -0.49582  -0.47333  -0.47048
  Beta  occ. eigenvalues --   -0.46102  -0.45075  -0.43903  -0.42746  -0.42220
  Beta  occ. eigenvalues --   -0.41685  -0.38146  -0.37083  -0.33958  -0.33330
  Beta  occ. eigenvalues --   -0.31678  -0.28236  -0.28191  -0.24350
  Beta virt. eigenvalues --   -0.13515  -0.02672  -0.00816  -0.00489   0.00121
  Beta virt. eigenvalues --    0.00527   0.01676   0.02660   0.02858   0.02865
  Beta virt. eigenvalues --    0.04253   0.04957   0.05503   0.06531   0.07144

 Mulliken charges and spin densities:
               1          2
     1  C   -0.294830  -0.000000
     2  O   -0.153728   0.000000
     3  C    0.080393  -0.000000
     4  C    0.083209   0.000000
     5  O   -0.153865   0.000000
     6  C   -0.294732  -0.000000
     7  C   -0.260317  -0.000000
     8  O   -0.233204   0.000000
     9  C    0.133031   0.000000
    10  C    0.132752   0.000000
    11  C   -0.260203  -0.000000
    12  O   -0.233234   0.000000
    13  H    0.152076  -0.000000
    14  H    0.151244   0.000000
    15  H    0.198353   0.000000
    16  H    0.151288   0.000000
    17  H    0.152107  -0.000000
    18  H    0.198342   0.000000
    19  H    0.225663   0.000000
    20  H    0.225654   0.000000
 Sum of Mulliken charges =   0.00000  -0.00000

 Dipole moment (field-independent basis, Debye):
    X=             -0.1008    Y=             -0.1085    Z=              0.0063  Tot=              0.1482
 Quadrupole moment (field-independent basis, Debye-Ang):
   XX=            -66.9011   YY=            -65.6022   ZZ=            -75.1986
   XY=              2.9882   XZ=             -5.4114   YZ=              3.9825

  Exact polarizability: 134.066 -18.709 126.171  28.440 -28.569  86.338
 Approx polarizability: 221.548 -63.301 199.601  72.712 -66.734 155.626

                      1                      2                      3
                      A                      A                      A
 Frequencies --     39.0020                48.2646                75.5272
 Red. masses --      1.9877                 2.2655                 3.8339
 Frc consts  --      0.0018                 0.0031                 0.0129
 IR Inten    --     18.3973                 0.0848                 0.5891

                      4                      5                      6
                      A                      A                      A
 Frequencies --     83.9510               133.0279               154.2566
 Red. masses --      7.6098                 1.4575                 1.4325
 Frc consts  --      0.0316                 0.0152                 0.0201
 IR Inten    --     10.0417                 3.5115                 0.1754

                      7                      8                      9
                      A                      A                      A
 Frequencies --    219.7832               242.6059               269.7261
 Red. masses --      4.4025                 2.9753                 4.4524
 Frc consts  --      0.1253                 0.1032                 0.1908
 IR Inten    --      5.1996                 6.0245                 0.3646

                     10                     11                     12
                      A                      A                      A
 Frequencies --    293.8801               352.3283               391.2835
 Red. masses --      9.1549                 4.3564                12.0478
 Frc consts  --      0.4658                 0.3186                 1.0868
 IR Inten    --      3.6565                 3.4969                11.8337

                     13                     14                     15
                      A                      A                      A
 Frequencies --    403.8628               421.0861               462.3038
 Red. masses --      6.3702                 5.7343                10.7649
 Frc consts  --      0.6122                 0.5991                 1.3555
 IR Inten    --      0.5371                15.0969                 3.8209

                     16                     17                     18
                      A                      A                      A
 Frequencies --    591.7650               610.4668               639.5448
 Red. masses --      8.3632                 2.4080                 3.8774
 Frc consts  --      1.7255                 0.5287                 0.9344
 IR Inten    --     10.6301                12.0422                 1.3560

                     19                     20                     21
                      A                      A                      A
 Frequencies --    648.2197               753.7152               780.3258
 Red. masses --      7.1644                 6.7390                10.0235
 Frc consts  --      1.7737                 2.2556                 3.5960
 IR Inten    --     21.9928                21.3136                 0.3593

                     22                     23                     24
                      A                      A                      A
 Frequencies --    854.1870               906.4285               970.4750
 Red. masses --      2.1548                 7.9904                 7.4099
 Frc consts  --      0.9263                 3.8680                 4.1118
 IR Inten    --     49.7593                69.7635                 3.3245

                     25                     26                     27
                      A                      A                      A
 Frequencies --   1007.3871              1066.4781              1082.3483
 Red. masses --      1.2509                 5.4215                 2.1064
 Frc consts  --      0.7480                 3.6331                 1.4539
 IR Inten    --      0.0024                31.5321               167.0040

                     28                     29                     30
                      A                      A                      A
 Frequencies --   1160.8099              1161.1264              1175.5559
 Red. masses --      1.2540                 1.2454                 1.4010
 Frc consts  --      0.9956                 0.9893                 1.1407
 IR Inten    --      0.0766                 7.5253                14.0760

                     31                     32                     33
                      A                      A                      A
 Frequencies --   1183.3851              1228.4228              1231.3645
 Red. masses --      1.8460                 2.7731                 1.8509
 Frc consts  --      1.5231                 2.4655                 1.6535
 IR Inten    --    115.2994                83.5151               149.5453

                     34                     35                     36
                      A                      A                      A
 Frequencies --   1311.8976              1363.2412              1379.3885
 Red. masses --      4.6135                 5.9290                 1.8125
 Frc consts  --      4.6783                 6.4920                 2.0319
 IR Inten    --    604.2878                 0.0825                11.5721

                     37                     38                     39
                      A                      A                      A
 Frequencies --   1470.6460              1481.3920              1487.1048
 Red. masses --      1.2066                 1.1741                 1.0526
 Frc consts  --      1.5375                 1.5180                 1.3715
 IR Inten    --     10.4646                66.0338                 0.6061

                     40                     41                     42
                      A                      A                      A
 Frequencies --   1488.9047              1499.6591              1500.7963
 Red. masses --      1.0840                 1.0486                 1.0493
 Frc consts  --      1.4159                 1.3895                 1.3925
 IR Inten    --     15.4797                21.3558                35.7849

                     43                     44                     45
                      A                      A                      A
 Frequencies --   1616.5959              1683.5734              1704.8341
 Red. masses --      8.4834                 9.5017                11.4160
 Frc consts  --     13.0625                15.8678                19.5492
 IR Inten    --    184.9171                 2.5359               572.6998

                     46                     47                     48
                      A                      A                      A
 Frequencies --   1715.4577              3040.2301              3041.0824
 Red. masses --      9.2653                 1.0341                 1.0344
 Frc consts  --     16.0646                 5.6314                 5.6363
 IR Inten    --      1.0253               100.5366                12.8673

                     49                     50                     51
                      A                      A                      A
 Frequencies --   3122.9433              3123.0809              3150.4552
 Red. masses --      1.1002                 1.1001                 1.1077
 Frc consts  --      6.3217                 6.3217                 6.4776
 IR Inten    --     27.0989                30.0379                 8.6886

                     52                     53                     54
                      A                      A                      A
 Frequencies --   3150.5791              3181.1251              3199.3899
 Red. masses --      1.1077                 1.0870                 1.1002
 Frc consts  --      6.4780                 6.4808                 6.6353
 IR Inten    --      9.1134                 1.1550                 1.8432

 - Thermochemistry -
 -------------------
 Temperature   298.150 Kelvin.  Pressure   1.00000 Atm.
 Atom     1 has atomic number  6 and mass  12.00000

 Molecular mass:   168.04226 amu.
 Principal axes and moments of inertia in atomic units:
                           1         2         3
     Eigenvalues --  1346.762292074.534383295.50235
           X            0.68500   0.67915  -0.26369
           Y           -0.60045   0.73126   0.32359
           Z            0.41260  -0.06333   0.90871
 This molecule is an asymmetric top.
 Rotational symmetry number  1.
 Warning -- assumption of classical behavior for rotation
           may cause significant error
 Rotational temperatures (Kelvin)      0.06431     0.04175     0.02628
 Rotational constants (GHZ):           1.34006     0.86995     0.54764
 Zero-point vibrational energy     390911.3 (Joules/Mol)
                                   93.43005 (Kcal/Mol)
 Warning -- explicit consideration of  17 degrees of freedom as
           vibrations may cause significant error
 Vibrational temperatures:     56.12    69.44   108.67   120.79   191.40
          (Kelvin)            221.94   316.22   349.06   388.08   422.83
                              506.92   562.97   581.07   605.85   665.15
                              851.42   878.33   920.16   932.64  1084.43
                             1122.71  1228.98  1304.15  1396.30  1449.41
                             1534.42  1557.26  1670.15  1670.60  1691.36
                             1702.63  1767.43  1771.66  1887.53  1961.40
                             1984.63  2115.93  2131.39  2139.61  2142.20
                             2157.67  2159.31  2325.92  2422.29  2452.88
                             2468.16  4374.21  4375.44  4493.22  4493.42
                             4532.80  4532.98  4576.93  4603.21

 Zero-point correction=                           0.148890 (Hartree/Particle)
 Thermal correction to Energy=                    0.160910
 Thermal correction to Enthalpy=                  0.161854
 Thermal correction to Gibbs Free Energy=         0.109535
 Sum of electronic and zero-point Energies=           -610.517570
 Sum of electronic and thermal Energies=              -610.505550
 Sum of electronic and thermal Enthalpies=            -610.504606
 Sum of electronic and thermal Free Energies=         -610.556924

                     E (Thermal)             CV                S
                      KCal/Mol        Cal/Mol-Kelvin    Cal/Mol-Kelvin
 Total                  100.972             42.018            110.113
 Electronic               0.000              0.000              0.000
 Translational            0.889              2.981             41.265
 Rotational               0.889              2.981             30.599
 Vibrational             99.195             36.056             38.249
 Vibration     1          0.594              1.981              5.309
 Vibration     2          0.595              1.978              4.887
 Vibration     3          0.599              1.965              4.004
 Vibration     4          0.601              1.960              3.796
 Vibration     5          0.613              1.920              2.902
 Vibration     6          0.620              1.898              2.619
 Vibration     7          0.647              1.811              1.961
 Vibration     8          0.659              1.775              1.784
 Vibration     9          0.674              1.729              1.598
 Vibration    10          0.689              1.685              1.452
 Vibration    11          0.729              1.570              1.156
 Vibration    12          0.759              1.489              0.995
 Vibration    13          0.769              1.462              0.949
 Vibration    14          0.784              1.424              0.888
 Vibration    15          0.820              1.334              0.759
 Vibration    16          0.949              1.049              0.464
 Vibration    17          0.970              1.010              0.432

                           ! Non-Optimized Parameters !
 Normal termination of Gaussian 16 at Wed Jan 10 05:08:13 2024.
