 Gaussian 16, Revision A.03,
 Gaussian 16:  ES64L-G16RevA.03 25-Dec-2016

 --------------------------------------
 #P UB3LYP/6-311++G(d,p) nosym opt freq
 --------------------------------------

 --------
 Oxidized
 --------
 Symbolic Z-matrix:
 Charge =  0 Multiplicity = 1

 SCF Done:  E(UB3LYP) =  -769.905951399     A.U. after   17 cycles
 SCF Done:  E(UB3LYP) =  -769.937166901     A.U. after   16 cycles
 SCF Done:  E(UB3LYP) =  -769.936708899     A.U. after   16 cycles
 SCF Done:  E(UB3LYP) =  -769.941069623     A.U. after   16 cycles
 SCF Done:  E(UB3LYP) =  -769.943800324     A.U. after   16 cycles
 SCF Done:  E(UB3LYP) =  -769.945181670     A.U. after   15 cycles
 SCF Done:  E(UB3LYP) =  -769.947565391     A.U. after   16 cycles
 SCF Done:  E(UB3LYP) =  -769.950394179     A.U. after   17 cycles
 SCF Done:  E(UB3LYP) =  -769.951654805     A.U. after   15 cycles
 SCF Done:  E(UB3LYP) =  -769.952059468     A.U. after   15 cycles
 SCF Done:  E(UB3LYP) =  -769.952148825     A.U. after   14 cycles
 SCF Done:  E(UB3LYP) =  -769.952317497     A.U. after   13 cycles
 SCF Done:  E(UB3LYP) =  -769.952363225     A.U. after   13 cycles
 SCF Done:  E(UB3LYP) =  -769.952388293     A.U. after   13 cycles
 SCF Done:  E(UB3LYP) =  -769.952393946     A.U. after   12 cycles
 SCF Done:  E(UB3LYP) =  -769.952396623     A.U. after   12 cycles
 SCF Done:  E(UB3LYP) =  -769.952397390     A.U. after   11 cycles
 SCF Done:  E(UB3LYP) =  -769.952397564     A.U. after   10 cycles
 SCF Done:  E(UB3LYP) =  -769.952397636     A.U. after   10 cycles
 Optimization completed.
    -- Stationary point found.
 Normal termination of Gaussian 16 at Sat Mar  2 04:43:28 2024.

 ----------------------------------------------------------------------
 #P Geom=AllCheck Guess=TCheck SCRF=Check GenChk UB3LYP/6-311++G(d,p) F
 req
 ----------------------------------------------------------------------

 Structure from the checkpoint file:  "036.chk"
 --------
 Oxidized
 --------
 Charge =  0 Multiplicity = 1

                          Input orientation:
 ---------------------------------------------------------------------
 Center     Atomic      Atomic             Coordinates (Angstroms)
 Number     Number       Type             X           Y           Z
 ---------------------------------------------------------------------
      1          6           0       -3.159650    1.797737    0.425989
      2          6           0       -4.182635    1.427591   -0.574397
      3          6           0       -4.015214    0.331554   -1.314360
      4          6           0       -2.789442   -0.496928   -1.175222
      5          6           0       -1.938253   -0.346489    0.056018
      6          6           0       -2.040759    0.835573    0.725028
      7          8           0       -3.248727    2.857710    1.025854
      8          8           0       -2.474891   -1.213554   -2.112403
      9          6           0       -1.129664    1.326180    1.816540
     10          6           0       -0.965750   -1.485436    0.480428
     11          6           0        0.499579   -1.050049    0.279951
     12          6           0        0.884379   -0.467223   -0.935713
     13          6           0        1.490944   -1.278820    1.239719
     14          6           0        2.820375   -0.926753    0.999085
     15          6           0        2.208468   -0.114148   -1.178161
     16          6           0        3.185283   -0.340422   -0.208753
     17          1           0       -5.017832    2.109441   -0.687667
     18          1           0       -4.688885    0.037939   -2.111708
     19          1           0       -1.611397    1.240023    2.796184
     20          1           0       -0.941287    2.391098    1.668924
     21          1           0       -0.182166    0.796754    1.837518
     22          1           0        0.141154   -0.295613   -1.706484
     23          1           0        1.238040   -1.729863    2.191093
     24          1           0        3.568414   -1.111892    1.762265
     25          1           0        2.477852    0.336672   -2.126998
     26          6           0       -1.303386   -1.848724    1.950877
     27          1           0       -2.361495   -2.111408    2.023761
     28          1           0       -0.730823   -2.723814    2.265331
     29          1           0       -1.107966   -1.044706    2.657611
     30          6           0       -1.147024   -2.811428   -0.311885
     31          1           0       -2.178326   -3.170408   -0.258604
     32          1           0       -0.873138   -2.719544   -1.357987
     33          1           0       -0.503770   -3.564132    0.150859
     34          1           0        4.216977   -0.064573   -0.395097
 ---------------------------------------------------------------------

 SCF Done:  E(UB3LYP) =  -769.952397636     A.U. after    1 cycles

 Alpha  occ. eigenvalues --  -19.13733 -19.13648 -10.28656 -10.28170 -10.21988
 Alpha  occ. eigenvalues --  -10.21873 -10.21773 -10.21445 -10.21223 -10.19353
 Alpha  occ. eigenvalues --  -10.18202 -10.18112 -10.18083 -10.17963 -10.17858
 Alpha  occ. eigenvalues --  -10.17554 -10.17396 -10.16212  -1.07066  -1.06722
 Alpha  occ. eigenvalues --   -0.88084  -0.86293  -0.83046  -0.79609  -0.75553
 Alpha  occ. eigenvalues --   -0.74586  -0.72799  -0.69590  -0.68989  -0.64480
 Alpha  occ. eigenvalues --   -0.61747  -0.61073  -0.59365  -0.56525  -0.52949
 Alpha  occ. eigenvalues --   -0.52725  -0.50372  -0.48786  -0.46811  -0.46541
 Alpha  occ. eigenvalues --   -0.46036  -0.45617  -0.45031  -0.43900  -0.43489
 Alpha  occ. eigenvalues --   -0.43196  -0.42306  -0.41346  -0.40677  -0.40134
 Alpha  occ. eigenvalues --   -0.39731  -0.39025  -0.38329  -0.37528  -0.36616
 Alpha  occ. eigenvalues --   -0.35475  -0.34557  -0.34102  -0.31209  -0.28684
 Alpha  occ. eigenvalues --   -0.28251  -0.27165  -0.26284  -0.25290
 Alpha virt. eigenvalues --   -0.12917  -0.03310  -0.02251  -0.02038  -0.01228
 Alpha virt. eigenvalues --   -0.01019  -0.00167   0.00266   0.00925   0.01226
 Alpha virt. eigenvalues --    0.02153   0.02602   0.02724   0.03280   0.03900

  Beta  occ. eigenvalues --  -19.13733 -19.13648 -10.28656 -10.28170 -10.21988
  Beta  occ. eigenvalues --  -10.21873 -10.21773 -10.21445 -10.21223 -10.19353
  Beta  occ. eigenvalues --  -10.18202 -10.18112 -10.18083 -10.17963 -10.17858
  Beta  occ. eigenvalues --  -10.17554 -10.17396 -10.16212  -1.07066  -1.06722
  Beta  occ. eigenvalues --   -0.88084  -0.86293  -0.83046  -0.79609  -0.75553
  Beta  occ. eigenvalues --   -0.74586  -0.72799  -0.69590  -0.68989  -0.64480
  Beta  occ. eigenvalues --   -0.61747  -0.61073  -0.59365  -0.56525  -0.52949
  Beta  occ. eigenvalues --   -0.52725  -0.50372  -0.48786  -0.46811  -0.46541
  Beta  occ. eigenvalues --   -0.46036  -0.45617  -0.45031  -0.43900  -0.43489
  Beta  occ. eigenvalues --   -0.43196  -0.42306  -0.41346  -0.40677  -0.40134
  Beta  occ. eigenvalues --   -0.39731  -0.39025  -0.38329  -0.37528  -0.36616
  Beta  occ. eigenvalues --   -0.35475  -0.34557  -0.34102  -0.31209  -0.28684
  Beta  occ. eigenvalues --   -0.28251  -0.27165  -0.26284  -0.25290
  Beta virt. eigenvalues --   -0.12917  -0.03310  -0.02251  -0.02038  -0.01228
  Beta virt. eigenvalues --   -0.01019  -0.00167   0.00266   0.00925   0.01226
  Beta virt. eigenvalues --    0.02153   0.02602   0.02724   0.03280   0.03900

 Mulliken charges and spin densities:
               1          2
     1  C   -0.610392   0.000000
     2  C    0.128580  -0.000000
     3  C   -0.152600   0.000000
     4  C   -0.513189  -0.000000
     5  C    0.827478  -0.000000
     6  C    0.349241   0.000000
     7  O   -0.209667  -0.000000
     8  O   -0.171763  -0.000000
     9  C   -0.560327  -0.000000
    10  C    0.078666  -0.000000
    11  C    0.662322   0.000000
    12  C   -0.414775  -0.000000
    13  C   -0.161052  -0.000000
    14  C   -0.324980  -0.000000
    15  C   -0.464775   0.000000
    16  C   -0.319763   0.000000
    17  H    0.221894  -0.000000
    18  H    0.236268  -0.000000
    19  H    0.211081  -0.000000
    20  H    0.198783   0.000000
    21  H    0.144460   0.000000
    22  H    0.183065  -0.000000
    23  H    0.146016   0.000000
    24  H    0.184420  -0.000000
    25  H    0.184110  -0.000000
    26  C   -0.487847   0.000000
    27  H    0.171217  -0.000000
    28  H    0.142692   0.000000
    29  H    0.151223   0.000000
    30  C   -0.476987  -0.000000
    31  H    0.157489  -0.000000
    32  H    0.193094   0.000000
    33  H    0.144701   0.000000
    34  H    0.151317   0.000000
 Sum of Mulliken charges =  -0.00000  -0.00000

 Dipole moment (field-independent basis, Debye):
    X=              0.1153    Y=             -1.0706    Z=              0.9694  Tot=              1.4489
 Quadrupole moment (field-independent basis, Debye-Ang):
   XX=            -98.5585   YY=           -117.5885   ZZ=           -108.1423
   XY=              4.5903   XZ=              2.6884   YZ=             -9.9211

  Exact polarizability: 210.592 -15.324 181.912   7.872  14.622 175.542
 Approx polarizability: 288.521 -14.648 321.072   4.663  54.489 314.249

                      1                      2                      3
                      A                      A                      A
 Frequencies --     27.5871                50.3228                59.4055
 Red. masses --      5.6398                 4.3250                 4.3919
 Frc consts  --      0.0025                 0.0065                 0.0091
 IR Inten    --      0.2892                 0.0900                 0.8060

                      4                      5                      6
                      A                      A                      A
 Frequencies --     71.8778                97.6827               160.5031
 Red. masses --      8.0077                 3.8479                 1.9111
 Frc consts  --      0.0244                 0.0216                 0.0290
 IR Inten    --      9.2048                 0.1787                 0.5757

                      7                      8                      9
                      A                      A                      A
 Frequencies --    198.0797               224.8664               230.7080
 Red. masses --      1.5018                 3.3573                 3.1511
 Frc consts  --      0.0347                 0.1000                 0.0988
 IR Inten    --      0.6791                 0.7195                 0.8752

                     10                     11                     12
                      A                      A                      A
 Frequencies --    251.4934               258.0857               269.2580
 Red. masses --      4.2904                 3.0599                 1.4644
 Frc consts  --      0.1599                 0.1201                 0.0626
 IR Inten    --      0.5091                 0.6541                 0.1674

                     13                     14                     15
                      A                      A                      A
 Frequencies --    292.1105               318.5896               332.7550
 Red. masses --      2.1296                 2.4330                 1.6693
 Frc consts  --      0.1071                 0.1455                 0.1089
 IR Inten    --      0.5302                 0.6551                 0.3058

                     16                     17                     18
                      A                      A                      A
 Frequencies --    359.5528               378.5342               413.9542
 Red. masses --      2.7514                 2.5306                 2.8901
 Frc consts  --      0.2096                 0.2136                 0.2918
 IR Inten    --      1.5889                 1.2029                 0.2871

                     19                     20                     21
                      A                      A                      A
 Frequencies --    417.7243               429.5674               453.2810
 Red. masses --      4.4570                 4.1859                 6.6584
 Frc consts  --      0.4582                 0.4551                 0.8060
 IR Inten    --      8.9099                 8.9887                 3.2214

                     22                     23                     24
                      A                      A                      A
 Frequencies --    488.4513               507.8449               551.0401
 Red. masses --      3.0814                 5.5310                 3.5693
 Frc consts  --      0.4331                 0.8405                 0.6386
 IR Inten    --      2.1401                 3.7405                15.9782

                     25                     26                     27
                      A                      A                      A
 Frequencies --    575.8832               612.7649               632.9888
 Red. masses --      3.0439                 3.3696                 5.6818
 Frc consts  --      0.5948                 0.7454                 1.3413
 IR Inten    --      1.0408                 2.0854                 0.3863

                     28                     29                     30
                      A                      A                      A
 Frequencies --    640.2285               650.7590               715.0841
 Red. masses --      4.3348                 3.6949                 1.6049
 Frc consts  --      1.0469                 0.9219                 0.4835
 IR Inten    --      2.5269                 1.0576                38.6322

                     31                     32                     33
                      A                      A                      A
 Frequencies --    721.9616               771.3143               783.2496
 Red. masses --      5.3981                 3.4194                 2.4182
 Frc consts  --      1.6578                 1.1986                 0.8741
 IR Inten    --     12.0165                19.1298                 9.2972

                     34                     35                     36
                      A                      A                      A
 Frequencies --    814.4654               826.1568               855.8560
 Red. masses --      4.3034                 3.1570                 2.1633
 Frc consts  --      1.6819                 1.2696                 0.9336
 IR Inten    --      6.7794                 1.9135                42.7030

                     37                     38                     39
                      A                      A                      A
 Frequencies --    856.9170               920.4824               938.3557
 Red. masses --      1.2574                 1.7607                 2.0911
 Frc consts  --      0.5440                 0.8789                 1.0848
 IR Inten    --      0.7596                 5.0508                 2.8742

                     40                     41                     42
                      A                      A                      A
 Frequencies --    946.3793               968.4570               988.2369
 Red. masses --      1.5700                 3.1278                 1.3746
 Frc consts  --      0.8285                 1.7284                 0.7910
 IR Inten    --      0.7525                21.8823                 0.0012

                     43                     44                     45
                      A                      A                      A
 Frequencies --   1005.3530              1015.7397              1016.4390
 Red. masses --      1.2970                 1.2849                 5.5625
 Frc consts  --      0.7724                 0.7811                 3.3860
 IR Inten    --      0.0143                 0.3387                 0.3210

                     46                     47                     48
                      A                      A                      A
 Frequencies --   1031.5152              1048.8003              1050.6119
 Red. masses --      1.3936                 1.7077                 2.1118
 Frc consts  --      0.8736                 1.1067                 1.3734
 IR Inten    --     10.9352                 5.3717                11.8039

                     49                     50                     51
                      A                      A                      A
 Frequencies --   1057.2495              1100.2834              1113.9275
 Red. masses --      1.9852                 1.7297                 1.5548
 Frc consts  --      1.3074                 1.2337                 1.1367
 IR Inten    --     21.3113                 3.0865                31.6194

                     52                     53                     54
                      A                      A                      A
 Frequencies --   1123.0902              1135.0019              1160.4298
 Red. masses --      2.0204                 2.4473                 2.8888
 Frc consts  --      1.5015                 1.8575                 2.2919
 IR Inten    --     16.2778                 4.7806                 1.9539

                     55                     56                     57
                      A                      A                      A
 Frequencies --   1183.0924              1202.7585              1212.6164
 Red. masses --      1.1092                 2.2764                 1.1438
 Frc consts  --      0.9148                 1.9402                 0.9909
 IR Inten    --      0.0088                 6.5836                 1.7799

                     58                     59                     60
                      A                      A                      A
 Frequencies --   1244.3351              1283.3312              1301.1087
 Red. masses --      3.2499                 3.5111                 3.5383
 Frc consts  --      2.9648                 3.4070                 3.5292
 IR Inten    --      7.2819               123.1073                55.9847

                     61                     62                     63
                      A                      A                      A
 Frequencies --   1323.2066              1359.9183              1385.9350
 Red. masses --      4.9168                 1.4393                 1.9206
 Frc consts  --      5.0721                 1.5683                 2.1735
 IR Inten    --      0.8172                 0.4055                 1.8525

                     64                     65                     66
                      A                      A                      A
 Frequencies --   1404.1471              1414.4736              1430.0141
 Red. masses --      1.1995                 1.2360                 1.2027
 Frc consts  --      1.3933                 1.4570                 1.4490
 IR Inten    --      7.7479                19.2409                13.5603

                     67                     68                     69
                      A                      A                      A
 Frequencies --   1474.0581              1476.5158              1483.5544
 Red. masses --      2.0118                 1.1208                 1.0608
 Frc consts  --      2.5755                 1.4396                 1.3756
 IR Inten    --      6.6807                 4.9037                 1.9560

                     70                     71                     72
                      A                      A                      A
 Frequencies --   1491.0363              1493.5753              1511.9192
 Red. masses --      1.0648                 1.0488                 1.0609
 Frc consts  --      1.3948                 1.3785                 1.4289
 IR Inten    --      7.2808                 4.0222                13.8618

                     73                     74                     75
                      A                      A                      A
 Frequencies --   1520.0399              1526.3382              1610.1682
 Red. masses --      1.0645                 2.0196                 7.0625
 Frc consts  --      1.4491                 2.7721                10.7882
 IR Inten    --      7.8677                20.3209                32.1567

                     76                     77                     78
                      A                      A                      A
 Frequencies --   1618.9235              1640.1600              1684.6263
 Red. masses --      5.4055                 5.4498                 9.0242
 Frc consts  --      8.3471                 8.6377                15.0892
 IR Inten    --      1.2383                 8.2212                11.6383

                     79                     80                     81
                      A                      A                      A
 Frequencies --   1710.7760              1716.7058              3034.7153
 Red. masses --     11.2982                 9.6513                 1.0404
 Frc consts  --     19.4825                16.7582                 5.6456
 IR Inten    --    337.1976               100.6450                17.1690

                     82                     83                     84
                      A                      A                      A
 Frequencies --   3035.5784              3045.6053              3089.5933
 Red. masses --      1.0488                 1.0390                 1.1025
 Frc consts  --      5.6942                 5.6782                 6.2004
 IR Inten    --      6.1345                33.2895                11.8165

                     85                     86                     87
                      A                      A                      A
 Frequencies --   3094.2588              3100.4164              3140.8253
 Red. masses --      1.0886                 1.1011                 1.0980
 Frc consts  --      6.1412                 6.2363                 6.3816
 IR Inten    --      4.5745                52.1143                13.1001

                     88                     89                     90
                      A                      A                      A
 Frequencies --   3159.6209              3166.5798              3167.1293
 Red. masses --      1.0851                 1.0902                 1.0971
 Frc consts  --      6.3825                 6.4409                 6.4840
 IR Inten    --      1.4615                 6.3974                 3.1298

                     91                     92                     93
                      A                      A                      A
 Frequencies --   3168.0721              3176.2902              3177.3279
 Red. masses --      1.0947                 1.0868                 1.0920
 Frc consts  --      6.4734                 6.4603                 6.4951
 IR Inten    --      2.8490                 1.1604                13.3864

                     94                     95                     96
                      A                      A                      A
 Frequencies --   3186.0297              3192.9804              3195.4813
 Red. masses --      1.0946                 1.0948                 1.1007
 Frc consts  --      6.5467                 6.5761                 6.6219
 IR Inten    --     21.3749                 9.4746                 3.8415

 - Thermochemistry -
 -------------------
 Temperature   298.150 Kelvin.  Pressure   1.00000 Atm.
 Atom     1 has atomic number  6 and mass  12.00000

 Molecular mass:   240.11503 amu.
 Principal axes and moments of inertia in atomic units:
                           1         2         3
     Eigenvalues --  2578.813705782.410506424.42433
           X            0.93347   0.24637  -0.26064
           Y           -0.35130   0.77446  -0.52612
           Z            0.07223   0.58268   0.80949
 This molecule is an asymmetric top.
 Rotational symmetry number  1.
 Warning -- assumption of classical behavior for rotation
           may cause significant error
 Rotational temperatures (Kelvin)      0.03359     0.01498     0.01348
 Rotational constants (GHZ):           0.69983     0.31211     0.28092
 Zero-point vibrational energy     728257.2 (Joules/Mol)
                                  174.05765 (Kcal/Mol)
 Warning -- explicit consideration of  26 degrees of freedom as
           vibrations may cause significant error
 Vibrational temperatures:     39.69    72.40    85.47   103.42   140.54
          (Kelvin)            230.93   284.99   323.53   331.94   361.84
                              371.33   387.40   420.28   458.38   478.76
                              517.32   544.63   595.59   601.01   618.05
                              652.17   702.77   730.68   792.82   828.57
                              881.63   910.73   921.15   936.30  1028.85
                             1038.74  1109.75  1126.92  1171.83  1188.66
                             1231.39  1232.91  1324.37  1350.08  1361.63
                             1393.39  1421.85  1446.48  1461.42  1462.43
                             1484.12  1508.99  1511.60  1521.15  1583.06
                             1602.69  1615.88  1633.01  1669.60  1702.21
                             1730.50  1744.68  1790.32  1846.43  1872.01
                             1903.80  1956.62  1994.05  2020.25  2035.11
                             2057.47  2120.84  2124.38  2134.50  2145.27
                             2148.92  2175.31  2187.00  2196.06  2316.67
                             2329.27  2359.82  2423.80  2461.43  2469.96
                             4366.28  4367.52  4381.95  4445.24  4451.95
                             4460.81  4518.95  4545.99  4556.00  4556.79
                             4558.15  4569.97  4571.47  4583.99  4593.99
                             4597.58

 Zero-point correction=                           0.277379 (Hartree/Particle)
 Thermal correction to Energy=                    0.293729
 Thermal correction to Enthalpy=                  0.294673
 Thermal correction to Gibbs Free Energy=         0.233458
 Sum of electronic and zero-point Energies=           -769.675019
 Sum of electronic and thermal Energies=              -769.658668
 Sum of electronic and thermal Enthalpies=            -769.657724
 Sum of electronic and thermal Free Energies=         -769.718940

                     E (Thermal)             CV                S
                      KCal/Mol        Cal/Mol-Kelvin    Cal/Mol-Kelvin
 Total                  184.318             64.415            128.839
 Electronic               0.000              0.000              0.000
 Translational            0.889              2.981             42.329
 Rotational               0.889              2.981             32.927
 Vibrational            182.540             58.453             53.583
 Vibration     1          0.593              1.984              5.996
 Vibration     2          0.595              1.977              4.805
 Vibration     3          0.597              1.974              4.477
 Vibration     4          0.598              1.967              4.101
 Vibration     5          0.603              1.951              3.500
 Vibration     6          0.622              1.891              2.544
 Vibration     7          0.637              1.843              2.151
 Vibration     8          0.650              1.803              1.920
 Vibration     9          0.652              1.794              1.873
 Vibration    10          0.663              1.760              1.720
 Vibration    11          0.667              1.749              1.675
 Vibration    12          0.674              1.730              1.601
 Vibration    13          0.687              1.688              1.462
 Vibration    14          0.705              1.638              1.317
 Vibration    15          0.715              1.610              1.247
 Vibration    16          0.734              1.556              1.124
 Vibration    17          0.749              1.516              1.045
 Vibration    18          0.778              1.440              0.913
 Vibration    19          0.781              1.432              0.900
 Vibration    20          0.791              1.406              0.860
 Vibration    21          0.812              1.354              0.786
 Vibration    22          0.844              1.276              0.688
 Vibration    23          0.863              1.233              0.639
 Vibration    24          0.906              1.137              0.542
 Vibration    25          0.932              1.083              0.493
 Vibration    26          0.972              1.005              0.428

 Optimization completed.
    -- Stationary point found.
 Normal termination of Gaussian 16 at Sat Mar  2 06:23:52 2024.
