 Q-Chem 5.4, Q-Chem, Inc., Pleasanton, CA (2021)
 Q-Chem 5.4.0 for Intel X86 EM64T Linux

User input:
--------------------------------------------------------------
$molecule
-2 1
C                  0.2563670000      1.4871960000     -0.7800330000
C                 -0.9325920000      0.6761780000     -0.7779550000
C                 -0.8874510000     -0.7243690000     -0.8663000000
C                  0.3520390000     -1.4529850000     -0.9304040000
C                  1.5409890000     -0.6419700000     -0.9325260000
C                  1.4958460000      0.7585810000     -0.8441830000
O                  0.2127650000      2.7914110000     -0.7535880000
O                  0.3956540000     -2.7572040000     -0.9565980000
C                  2.7679820000      1.5754790000     -0.8563380000
C                  2.8642220000     -1.3708590000     -0.9909070000
C                 -2.2558320000      1.4050670000     -0.7195630000
C                 -2.1595780000     -1.5412690000     -0.8541440000
H                  3.5227570000      1.1883370000     -0.1590930000
H                  2.5182020000      2.6064900000     -0.5934800000
H                  3.2525920000      1.5985730000     -1.8528380000
H                  2.6709210000     -2.4166960000     -1.2426200000
H                  3.4021670000     -1.3603350000     -0.0218700000
H                  3.5526120000     -0.9341690000     -1.7264700000
H                 -2.0624600000      2.4510170000     -0.4683760000
H                 -2.9439970000      0.9687240000      0.0164270000
H                 -2.7940690000      1.3940380000     -1.6884240000
H                 -2.9146090000     -1.1537220000     -1.5508780000
H                 -2.6438060000     -1.5649460000      0.1425350000
H                 -1.9099190000     -2.5721470000     -1.1176330000
$end
$rem
MAX_SCF_CYCLES=200
BASIS  =  6-311++G(d,p)
GUI  =  2
JOB_TYPE  =  SP
METHOD  =  B3LYP
SOLVENT_METHOD = COSMO
$end
$solvent
dielectric 37.219
opticaldielectric 1.43
$end

--------------------------------------------------------------

             Standard Nuclear Orientation (Angstroms)
    I     Atom           X                Y                Z
 ----------------------------------------------------------------
    1      C      -0.0002215586    -1.4727187131    -0.0145161487
    2      C      -1.2154897470    -0.7016800409    -0.0152999364
    3      C      -1.2152534629     0.7020440238     0.0152474432
    4      C       0.0002260839     1.4727158245     0.0145366696
    5      C       1.2154863765     0.7016816674     0.0153645398
    6      C       1.2152482837    -0.7020463747    -0.0151806240
    7      O      -0.0004874145    -2.7776435902     0.0128377014
    8      O       0.0004979647     2.7776347798    -0.0130684067
    9      C       2.5140878579    -1.4758292794    -0.0064705305
   10      C       2.5144653151     1.4751212907     0.0065353897
   11      C      -2.5144759783    -1.4751203457    -0.0064815730
   12      C      -2.5140841402     1.4758291781     0.0065360134
   13      H       3.2361208812    -1.0933318602    -0.7400091159
   14      H       2.2921865253    -2.5243906312    -0.2203558943
   15      H       3.0261297606    -1.4420353682     0.9759059229
   16      H       2.2928985776     2.5235795880     0.2213448895
   17      H       3.0258989220     1.4422340271    -0.9762577618
   18      H       3.2369553609     1.0917863433     0.7391296341
   19      H      -2.2928201850    -2.5236675021    -0.2207631910
   20      H      -3.2367411408    -1.0921421723    -0.7394947479
   21      H      -3.0262231411    -1.4417455527     0.9761237949
   22      H      -3.2363731559     1.0928979184     0.7395878418
   23      H      -3.0257689464     1.4426225450    -0.9760536079
   24      H      -2.2922820403     2.5242797626     0.2210604190
 ----------------------------------------------------------------

   13    -538.8356413114      2.88e-06  Convergence criterion met
 Total energy in the final basis set =     -538.8356413114
    6    -539.1303978135      3.23e-06  Convergence criterion met
 Total energy in the final basis set =     -539.1303978135

                    Orbital Energies (a.u.)
 --------------------------------------------------------------

 Alpha MOs
 -- Occupied --
-19.0096 -19.0095 -10.1559 -10.1558 -10.1309 -10.1309 -10.1308 -10.1308
-10.1179 -10.1178 -10.1174 -10.1173  -0.9223  -0.9189  -0.7823  -0.7511
 -0.6915  -0.6890  -0.6623  -0.5968  -0.5932  -0.5041  -0.4973  -0.4584
 -0.4047  -0.4040  -0.3909  -0.3840  -0.3748  -0.3699  -0.3651  -0.3599
 -0.3530  -0.3448  -0.3400  -0.3293  -0.3196  -0.2987  -0.2961  -0.2916
 -0.2133  -0.1960  -0.1873  -0.1814  -0.1102

          Ground-State Mulliken Net Atomic Charges

     Atom                 Charge (a.u.)
  ----------------------------------------
      1 C                    -1.309821
      2 C                     0.660199
      3 C                     0.659138
      4 C                    -1.308390
      5 C                     0.662384
      6 C                     0.660949
      7 O                    -0.772846
      8 O                    -0.772816
      9 C                    -0.559640
     10 C                    -0.560200
     11 C                    -0.560120
     12 C                    -0.559599
     13 H                     0.133110
     14 H                     0.166303
     15 H                     0.140782
     16 H                     0.166259
     17 H                     0.140882
     18 H                     0.133047
     19 H                     0.166395
     20 H                     0.133013
     21 H                     0.140795
     22 H                     0.132974
     23 H                     0.140845
     24 H                     0.166356
  ----------------------------------------
  Sum of atomic charges =    -2.000000

                    Cartesian Multipole Moments
 -----------------------------------------------------------------
    Charge (ESU x 10^10)
                -9.6064
    Dipole Moment (Debye)
         X       0.0049      Y       0.0002      Z       0.0012
       Tot       0.0050
    Quadrupole Moments (Debye-Ang)
        XX     -87.7734     XY      -0.0103     YY    -148.0559
        XZ       0.0001     YZ       0.2696     ZZ     -82.3777

 Total job time:  44.52s(wall), 329.87s(cpu)
        *  Thank you very much for using Q-Chem.  Have a nice day.  *
