 Q-Chem 5.4, Q-Chem, Inc., Pleasanton, CA (2021)
 Q-Chem 5.4.0 for Intel X86 EM64T Linux

User input:
--------------------------------------------------------------
$molecule
0 1
C                 -4.9941040000     -1.0461820000     -0.1228880000
O                 -3.5798890000     -1.0649110000      0.0317690000
C                 -2.8945910000      0.0958280000      0.0218250000
C                 -3.5207450000      1.3394900000     -0.1295670000
C                 -2.7700640000      2.5109350000     -0.1421760000
C                 -1.3897900000      2.4681120000     -0.0127900000
C                 -0.7478370000      1.2370820000      0.1257720000
C                  0.7545390000      1.2709230000      0.2480470000
O                  1.3136650000      2.3435880000      0.3969690000
C                  1.4790120000     -0.0226920000      0.1690930000
C                  2.8944940000     -0.0946000000      0.0508080000
O                  3.5800890000      1.0630500000     -0.0322690000
C                  4.9953430000      1.0318600000     -0.1752560000
C                  3.5213280000     -1.3464170000      0.0094900000
C                  2.7704290000     -2.5149710000      0.0907520000
C                  1.3892910000     -2.4617820000      0.2062420000
C                  0.7466890000     -1.2236510000      0.2355000000
C                 -0.7565780000     -1.2475400000      0.3490410000
O                 -1.3171740000     -2.3040160000      0.5836070000
C                 -1.4800370000      0.0345790000      0.1559500000
H                 -5.3007160000     -2.0896980000     -0.0861060000
H                 -5.4784860000     -0.4967940000      0.6909590000
H                 -5.2867640000     -0.6139080000     -1.0855370000
H                 -4.5947250000      1.3979990000     -0.2359680000
H                 -3.2759500000      3.4632350000     -0.2566130000
H                 -0.7895270000      3.3677400000     -0.0171320000
H                  5.3018550000      2.0748670000     -0.2250310000
H                  5.2944280000      0.5196990000     -1.0958280000
H                  5.4741630000      0.5536170000      0.6854320000
H                  4.5960120000     -1.4133430000     -0.0840750000
H                  3.2768480000     -3.4733760000      0.0608840000
H                  0.7887910000     -3.3587240000      0.2737730000
$end

$rem
BASIS  =  6-311++G(d,p)
GUI  =  2
JOB_TYPE  =  SP
METHOD  =  B3LYP
SCF_CONVERGENCE  = 8
SOLVENT_METHOD = sm12
$end

$smx
solvent dimethylformamide
charges CM5
$end

--------------------------------------------------------------

             Standard Nuclear Orientation (Angstroms)
    I     Atom           X                Y                Z
 ----------------------------------------------------------------
    1      C      -4.9941040000    -1.0461820000    -0.1228880000
    2      O      -3.5798890000    -1.0649110000     0.0317690000
    3      C      -2.8945910000     0.0958280000     0.0218250000
    4      C      -3.5207450000     1.3394900000    -0.1295670000
    5      C      -2.7700640000     2.5109350000    -0.1421760000
    6      C      -1.3897900000     2.4681120000    -0.0127900000
    7      C      -0.7478370000     1.2370820000     0.1257720000
    8      C       0.7545390000     1.2709230000     0.2480470000
    9      O       1.3136650000     2.3435880000     0.3969690000
   10      C       1.4790120000    -0.0226920000     0.1690930000
   11      C       2.8944940000    -0.0946000000     0.0508080000
   12      O       3.5800890000     1.0630500000    -0.0322690000
   13      C       4.9953430000     1.0318600000    -0.1752560000
   14      C       3.5213280000    -1.3464170000     0.0094900000
   15      C       2.7704290000    -2.5149710000     0.0907520000
   16      C       1.3892910000    -2.4617820000     0.2062420000
   17      C       0.7466890000    -1.2236510000     0.2355000000
   18      C      -0.7565780000    -1.2475400000     0.3490410000
   19      O      -1.3171740000    -2.3040160000     0.5836070000
   20      C      -1.4800370000     0.0345790000     0.1559500000
   21      H      -5.3007160000    -2.0896980000    -0.0861060000
   22      H      -5.4784860000    -0.4967940000     0.6909590000
   23      H      -5.2867640000    -0.6139080000    -1.0855370000
   24      H      -4.5947250000     1.3979990000    -0.2359680000
   25      H      -3.2759500000     3.4632350000    -0.2566130000
   26      H      -0.7895270000     3.3677400000    -0.0171320000
   27      H       5.3018550000     2.0748670000    -0.2250310000
   28      H       5.2944280000     0.5196990000    -1.0958280000
   29      H       5.4741630000     0.5536170000     0.6854320000
   30      H       4.5960120000    -1.4133430000    -0.0840750000
   31      H       3.2768480000    -3.4733760000     0.0608840000
   32      H       0.7887910000    -3.3587240000     0.2737730000
 ----------------------------------------------------------------

   14    -918.0444723141      6.62e-09  Convergence criterion met
 Total energy in the final basis set =     -918.0706668943

                    Orbital Energies (a.u.)
 --------------------------------------------------------------

 Alpha MOs
 -- Occupied --
-19.1636 -19.1635 -19.1172 -19.1171 -10.2747 -10.2747 -10.2621 -10.2621
-10.2194 -10.2194 -10.2061 -10.2060 -10.2043 -10.2043 -10.1969 -10.1969
-10.1914 -10.1914 -10.1852 -10.1852  -1.0849  -1.0848  -1.0539  -1.0524
 -0.8868  -0.8753  -0.8094  -0.7797  -0.7764  -0.7690  -0.7137  -0.7096
 -0.6841  -0.6532  -0.6444  -0.6001  -0.5769  -0.5635  -0.5576  -0.5175
 -0.5107  -0.5093  -0.4891  -0.4874  -0.4788  -0.4755  -0.4744  -0.4511
 -0.4498  -0.4456  -0.4426  -0.4229  -0.4161  -0.4103  -0.4008  -0.3946
 -0.3887  -0.3855  -0.3745  -0.3731  -0.3453  -0.3427  -0.3374  -0.3341
 -0.2855  -0.2758  -0.2699  -0.2571  -0.2439  -0.2426

          Ground-State Mulliken Net Atomic Charges

     Atom                 Charge (a.u.)
  ----------------------------------------
      1 C                    -0.137001
      2 O                    -0.159548
      3 C                    -0.298583
      4 C                     1.268878
      5 C                     0.547601
      6 C                    -0.330892
      7 C                    -0.036354
      8 C                    -1.556487
      9 O                    -0.258859
     10 C                    -0.585994
     11 C                    -0.299243
     12 O                    -0.159584
     13 C                    -0.137226
     14 C                     1.270250
     15 C                     0.548661
     16 C                    -0.329022
     17 C                    -0.030049
     18 C                    -1.557322
     19 O                    -0.258626
     20 C                    -0.582761
     21 H                     0.221921
     22 H                     0.232332
     23 H                     0.227516
     24 H                     0.372020
     25 H                     0.344050
     26 H                     0.143036
     27 H                     0.221841
     28 H                     0.227600
     29 H                     0.232375
     30 H                     0.372090
     31 H                     0.344090
     32 H                     0.143289
  ----------------------------------------
  Sum of atomic charges =     0.000000

                    Cartesian Multipole Moments
 -----------------------------------------------------------------
    Charge (ESU x 10^10)
                 0.0000
    Dipole Moment (Debye)
         X       0.0071      Y      -0.0709      Z      -1.6359
       Tot       1.6375
    Quadrupole Moments (Debye-Ang)
        XX     -62.1843     XY     -13.4515     YY    -119.2406
        XZ       0.7667     YZ      -0.0185     ZZ    -118.5066

 Total job time:  791.63s(wall), 6201.18s(cpu)
        *  Thank you very much for using Q-Chem.  Have a nice day.  *
