 Gaussian 16, Revision A.03,
 Gaussian 16:  ES64L-G16RevA.03 25-Dec-2016

 ----------------------------------------------------------------
 #P UB3LYP/6-311++G(d,p) SCRF=(PCM,Solvent=n,n-DiMethylFormamide)
 ----------------------------------------------------------------

 ------------------
 Radical PCM in DMF
 ------------------
 Symbolic Z-matrix:
 Charge = -1 Multiplicity = 2

                         Standard orientation:
 ---------------------------------------------------------------------
 Center     Atomic      Atomic             Coordinates (Angstroms)
 Number     Number       Type             X           Y           Z
 ---------------------------------------------------------------------
      1          6           0       -1.946708   -1.716298   -0.080751
      2          6           0       -3.298554   -1.431573   -0.021538
      3          6           0       -3.736166   -0.094230    0.062761
      4          6           0       -0.981442   -0.685975   -0.054431
      5          6           0       -1.426491    0.660702    0.026689
      6          6           0       -2.806078    0.930563    0.084573
      7          6           0        0.441039   -1.039806   -0.138553
      8          6           0        1.383666    0.075328   -0.080135
      9          6           0        0.925717    1.384535    0.004730
     10          6           0       -0.455484    1.766503    0.051552
     11          8           0        0.803231   -2.243521   -0.272238
     12          8           0       -0.821328    2.970539    0.128790
     13          7           0        2.764447   -0.213121   -0.193223
     14          6           0        3.316922   -1.212788    0.716424
     15          6           0        3.669451    0.895552   -0.408274
     16          1           0       -1.586160   -2.736091   -0.150518
     17          1           0       -4.024906   -2.239379   -0.040661
     18          1           0       -4.798192    0.129121    0.108742
     19          1           0       -3.107205    1.970464    0.146828
     20          1           0        1.622932    2.212194    0.051970
     21          1           0        2.641867   -2.063402    0.764677
     22          1           0        3.473796   -0.799861    1.730795
     23          1           0        4.286680   -1.550730    0.334549
     24          1           0        3.316732    1.521233   -1.230490
     25          1           0        4.652921    0.495549   -0.674754
     26          1           0        3.799951    1.541512    0.480721
 ---------------------------------------------------------------------

 SCF Done:  E(UB3LYP) =  -669.412843344     A.U. after   20 cycles

 The electronic state is 2-A.
 Alpha  occ. eigenvalues --  -19.07221 -19.06888 -14.32184 -10.21858 -10.21749
 Alpha  occ. eigenvalues --  -10.20184 -10.18710 -10.17921 -10.17056 -10.16987
 Alpha  occ. eigenvalues --  -10.16980 -10.16791 -10.16724 -10.16661 -10.14989
 Alpha  occ. eigenvalues --   -0.99903  -0.99272  -0.93259  -0.85416  -0.79425
 Alpha  occ. eigenvalues --   -0.74714  -0.73702  -0.70935  -0.67960  -0.64187
 Alpha  occ. eigenvalues --   -0.61166  -0.58358  -0.55446  -0.50913  -0.50468
 Alpha  occ. eigenvalues --   -0.48089  -0.46032  -0.45803  -0.44380  -0.42632
 Alpha  occ. eigenvalues --   -0.41962  -0.41160  -0.41018  -0.40125  -0.39333
 Alpha  occ. eigenvalues --   -0.38551  -0.37935  -0.37047  -0.36318  -0.34899
 Alpha  occ. eigenvalues --   -0.34852  -0.33470  -0.28741  -0.25727  -0.25412
 Alpha  occ. eigenvalues --   -0.24049  -0.23369  -0.21151  -0.14464
 Alpha virt. eigenvalues --   -0.03093  -0.00985  -0.00293   0.00472   0.01337
 Alpha virt. eigenvalues --    0.02255   0.02384   0.02872   0.04261   0.04490
 Alpha virt. eigenvalues --    0.04623   0.04800   0.05298   0.05891   0.06301

  Beta  occ. eigenvalues --  -19.06585 -19.06370 -14.32095 -10.21618 -10.21612
  Beta  occ. eigenvalues --  -10.20045 -10.18715 -10.17915 -10.17039 -10.16952
  Beta  occ. eigenvalues --  -10.16917 -10.16761 -10.16682 -10.16632 -10.14931
  Beta  occ. eigenvalues --   -0.98826  -0.98336  -0.93013  -0.85215  -0.78974
  Beta  occ. eigenvalues --   -0.74519  -0.73521  -0.70854  -0.67389  -0.63757
  Beta  occ. eigenvalues --   -0.60993  -0.58101  -0.55199  -0.50719  -0.50273
  Beta  occ. eigenvalues --   -0.47850  -0.45842  -0.45547  -0.44301  -0.42445
  Beta  occ. eigenvalues --   -0.41798  -0.40758  -0.39900  -0.39760  -0.39087
  Beta  occ. eigenvalues --   -0.38366  -0.37478  -0.36623  -0.34744  -0.34612
  Beta  occ. eigenvalues --   -0.34012  -0.33322  -0.27240  -0.24756  -0.24304
  Beta  occ. eigenvalues --   -0.23499  -0.22836  -0.20228
  Beta virt. eigenvalues --   -0.08067  -0.02364  -0.00437   0.00165   0.00570
  Beta virt. eigenvalues --    0.01355   0.02272   0.02396   0.02897   0.04297
  Beta virt. eigenvalues --    0.04527   0.04668   0.05196   0.05349   0.06298

 Mulliken charges and spin densities:
               1          2
     1  C    0.177169   0.069870
     2  C   -0.461577   0.011597
     3  C   -0.396719   0.053248
     4  C    0.023625  -0.005810
     5  C    0.692825   0.062405
     6  C    0.103111   0.004795
     7  C   -0.821834   0.165994
     8  C   -0.581374   0.084899
     9  C    0.453680   0.020826
    10  C   -0.277402   0.083096
    11  O   -0.478811   0.240364
    12  O   -0.508693   0.185957
    13  N    0.074822   0.026381
    14  C   -0.402109   0.007051
    15  C   -0.374450  -0.002698
    16  H    0.168203  -0.003270
    17  H    0.176455  -0.001254
    18  H    0.181334  -0.003899
    19  H    0.155262  -0.000785
    20  H    0.184511  -0.005920
    21  H    0.177939  -0.002590
    22  H    0.134260   0.003903
    23  H    0.148691   0.001214
    24  H    0.154089   0.000123
    25  H    0.158465  -0.000196
    26  H    0.138528   0.004701
 Sum of Mulliken charges =  -1.00000   1.00000

 Dipole moment (field-independent basis, Debye):
    X=              2.0712    Y=             -2.2181    Z=              0.8071  Tot=              3.1403
 Quadrupole moment (field-independent basis, Debye-Ang):
   XX=            -86.9218   YY=           -126.5064   ZZ=            -95.8160
   XY=             12.0397   XZ=              1.7586   YZ=             -3.9645

 Normal termination of Gaussian 16 at Sun Jan 21 08:33:31 2024.
