 Gaussian 16, Revision A.03,
 Gaussian 16:  ES64L-G16RevA.03 25-Dec-2016

 --------------------------------------
 #P UB3LYP/6-311++G(d,p) nosym opt freq
 --------------------------------------

 -------
 Reduced
 -------
 Symbolic Z-matrix:
 Charge = -2 Multiplicity = 1

 SCF Done:  E(UB3LYP) =  -744.244671497     A.U. after   40 cycles
 SCF Done:  E(UB3LYP) =  -744.260013771     A.U. after   29 cycles
 SCF Done:  E(UB3LYP) =  -744.262100834     A.U. after   28 cycles
 SCF Done:  E(UB3LYP) =  -744.262370252     A.U. after   33 cycles
 SCF Done:  E(UB3LYP) =  -744.262025903     A.U. after   28 cycles
 SCF Done:  E(UB3LYP) =  -744.262466809     A.U. after   27 cycles
 SCF Done:  E(UB3LYP) =  -744.262506324     A.U. after   24 cycles
 SCF Done:  E(UB3LYP) =  -744.262503241     A.U. after   24 cycles
 SCF Done:  E(UB3LYP) =  -744.262495554     A.U. after   27 cycles
 SCF Done:  E(UB3LYP) =  -744.262515490     A.U. after   25 cycles
 SCF Done:  E(UB3LYP) =  -744.262517888     A.U. after   25 cycles
 SCF Done:  E(UB3LYP) =  -744.262519382     A.U. after   25 cycles
 SCF Done:  E(UB3LYP) =  -744.262521623     A.U. after   24 cycles
 SCF Done:  E(UB3LYP) =  -744.262523352     A.U. after   20 cycles
 SCF Done:  E(UB3LYP) =  -744.262523938     A.U. after   23 cycles
 SCF Done:  E(UB3LYP) =  -744.262524050     A.U. after   24 cycles
 Optimization completed.
    -- Stationary point found.
 Normal termination of Gaussian 16 at Sat Jan  6 04:05:03 2024.

 ----------------------------------------------------------------------
 #P Geom=AllCheck Guess=TCheck SCRF=Check GenChk UB3LYP/6-311++G(d,p) F
 req
 ----------------------------------------------------------------------

 Structure from the checkpoint file:  "320-an.chk"
 -------
 Reduced
 -------
 Charge = -2 Multiplicity = 1

                          Input orientation:
 ---------------------------------------------------------------------
 Center     Atomic      Atomic             Coordinates (Angstroms)
 Number     Number       Type             X           Y           Z
 ---------------------------------------------------------------------
      1          6           0       -0.473708    3.898644    0.312109
      2          6           0        0.562858    2.974210    0.344560
      3          6           0        0.386579    1.664604   -0.165672
      4          6           0       -0.868460    1.329663   -0.703571
      5          6           0        1.513237    0.724223   -0.155639
      6          6           0        1.500682   -0.708345    0.096718
      7          6           0        2.842823    1.040813   -0.358337
      8          6           0        2.850098   -1.171945    0.057994
      9          6           0        0.487677   -1.633490    0.394748
     10          6           0        0.821410   -2.965249    0.619356
     11          6           0        2.159436   -3.402643    0.547175
     12          6           0        3.189560   -2.512196    0.269891
     13          7           0        3.647697   -0.086685   -0.203178
     14          1           0       -1.025943    0.347517   -1.142532
     15          1           0        3.287036    1.995428   -0.593347
     16          1           0       -0.541682   -1.299583    0.449657
     17          1           0        0.039776   -3.682622    0.853413
     18          1           0        2.394088   -4.449419    0.718827
     19          1           0        4.224683   -2.842940    0.232926
     20          1           0        4.645351   -0.119560   -0.350755
     21          6           0       -1.778147    3.620737   -0.227281
     22          6           0       -1.987408    2.223158   -0.777089
     23          8           0       -2.698509    4.485841   -0.240635
     24          8           0       -3.096673    1.878784   -1.280594
     25          1           0       -0.332010    4.895301    0.728787
     26          1           0        1.514479    3.242454    0.799169
 ---------------------------------------------------------------------

 SCF Done:  E(UB3LYP) =  -744.262524050     A.U. after    4 cycles

 Alpha  occ. eigenvalues --  -18.80484 -18.79763 -14.15884 -10.01241  -9.99530
 Alpha  occ. eigenvalues --   -9.98592  -9.98506  -9.97893  -9.97738  -9.97366
 Alpha  occ. eigenvalues --   -9.96351  -9.95500  -9.95115  -9.92999  -9.92119
 Alpha  occ. eigenvalues --   -9.90461  -9.89853  -0.78203  -0.73033  -0.70275
 Alpha  occ. eigenvalues --   -0.65093  -0.60267  -0.56429  -0.54513  -0.52442
 Alpha  occ. eigenvalues --   -0.47387  -0.44233  -0.43058  -0.40078  -0.37544
 Alpha  occ. eigenvalues --   -0.34963  -0.32739  -0.30468  -0.29038  -0.28140
 Alpha  occ. eigenvalues --   -0.24395  -0.24104  -0.22978  -0.22603  -0.21146
 Alpha  occ. eigenvalues --   -0.19697  -0.18654  -0.16978  -0.16091  -0.14882
 Alpha  occ. eigenvalues --   -0.14805  -0.13658  -0.13476  -0.11191  -0.10196
 Alpha  occ. eigenvalues --   -0.09171  -0.06331  -0.05871  -0.03535  -0.01002
 Alpha  occ. eigenvalues --    0.01672   0.03844   0.04932   0.11166
 Alpha virt. eigenvalues --    0.12535   0.13645   0.15303   0.16686   0.16763
 Alpha virt. eigenvalues --    0.17830   0.19255   0.19843   0.20201   0.20606
 Alpha virt. eigenvalues --    0.21418   0.22418   0.23209   0.23709   0.24567

  Beta  occ. eigenvalues --  -18.80484 -18.79763 -14.15884 -10.01241  -9.99530
  Beta  occ. eigenvalues --   -9.98592  -9.98506  -9.97893  -9.97738  -9.97366
  Beta  occ. eigenvalues --   -9.96351  -9.95500  -9.95115  -9.92999  -9.92119
  Beta  occ. eigenvalues --   -9.90461  -9.89853  -0.78203  -0.73033  -0.70275
  Beta  occ. eigenvalues --   -0.65093  -0.60267  -0.56429  -0.54513  -0.52442
  Beta  occ. eigenvalues --   -0.47387  -0.44233  -0.43058  -0.40078  -0.37544
  Beta  occ. eigenvalues --   -0.34963  -0.32739  -0.30468  -0.29038  -0.28140
  Beta  occ. eigenvalues --   -0.24395  -0.24104  -0.22978  -0.22603  -0.21146
  Beta  occ. eigenvalues --   -0.19697  -0.18654  -0.16978  -0.16091  -0.14882
  Beta  occ. eigenvalues --   -0.14805  -0.13658  -0.13476  -0.11191  -0.10196
  Beta  occ. eigenvalues --   -0.09171  -0.06331  -0.05871  -0.03535  -0.01002
  Beta  occ. eigenvalues --    0.01672   0.03844   0.04932   0.11166
  Beta virt. eigenvalues --    0.12535   0.13645   0.15303   0.16686   0.16763
  Beta virt. eigenvalues --    0.17830   0.19255   0.19843   0.20201   0.20606
  Beta virt. eigenvalues --    0.21418   0.22418   0.23209   0.23709   0.24567

 Mulliken charges and spin densities:
               1          2
     1  C    0.399991  -0.000000
     2  C   -0.987168   0.000000
     3  C    1.491429   0.000000
     4  C   -0.705532   0.000000
     5  C    0.824539  -0.000000
     6  C    2.291013  -0.000000
     7  C   -0.772644   0.000000
     8  C    0.395600  -0.000000
     9  C   -1.207638   0.000000
    10  C   -0.963007   0.000000
    11  C    1.144235  -0.000000
    12  C   -0.380551   0.000000
    13  N   -0.172254   0.000000
    14  H    0.100509  -0.000000
    15  H    0.017937  -0.000000
    16  H    0.128125   0.000000
    17  H    0.078059   0.000000
    18  H   -0.167119  -0.000000
    19  H   -1.478797   0.000000
    20  H   -0.324430   0.000000
    21  C   -0.726508   0.000000
    22  C   -0.199259  -0.000000
    23  O   -0.454711  -0.000000
    24  O   -0.476813  -0.000000
    25  H    0.083711  -0.000000
    26  H    0.061282   0.000000
 Sum of Mulliken charges =  -2.00000  -0.00000

 Dipole moment (field-independent basis, Debye):
    X=              0.5786    Y=            -10.9980    Z=              3.1912  Tot=             11.4662
 Quadrupole moment (field-independent basis, Debye-Ang):
   XX=           -224.8880   YY=           -213.6781   ZZ=           -124.8031
   XY=             77.2204   XZ=            -13.3277   YZ=             10.1180

  Exact polarizability:1465.791-224.4272056.842 -80.614-346.761 279.523
 Approx polarizability:9907.231********6720.707 416.906-602.867 354.161

                      1                      2                      3
                      A                      A                      A
 Frequencies --     43.2424                60.8092                78.0691
 Red. masses --      6.5925                 6.4632                 5.6722
 Frc consts  --      0.0073                 0.0141                 0.0204
 IR Inten    --      0.0607                 7.0241                 7.6498

                      4                      5                      6
                      A                      A                      A
 Frequencies --    121.5546               185.5373               214.9058
 Red. masses --      6.1826                 5.2319                 3.1967
 Frc consts  --      0.0538                 0.1061                 0.0870
 IR Inten    --      1.4244                13.8314                 5.5678

                      7                      8                      9
                      A                      A                      A
 Frequencies --    228.7095               268.8241               279.0948
 Red. masses --      6.0936                 3.7125                 4.0564
 Frc consts  --      0.1878                 0.1581                 0.1862
 IR Inten    --      4.1999                33.7522                22.2836

                     10                     11                     12
                      A                      A                      A
 Frequencies --    325.1836               350.9641               405.9319
 Red. masses --      3.2947                14.3392                 2.8270
 Frc consts  --      0.2053                 1.0406                 0.2745
 IR Inten    --     12.1248                14.8386                 6.1207

                     13                     14                     15
                      A                      A                      A
 Frequencies --    432.2944               464.8889               476.0437
 Red. masses --      2.9809                 5.7357                 3.1234
 Frc consts  --      0.3282                 0.7304                 0.4170
 IR Inten    --      9.0468                31.7012                 1.2619

                     16                     17                     18
                      A                      A                      A
 Frequencies --    497.3316               557.1362               587.6013
 Red. masses --      5.3023                 6.8111                 4.0062
 Frc consts  --      0.7727                 1.2456                 0.8150
 IR Inten    --     25.4683                34.1514                45.0926

                     19                     20                     21
                      A                      A                      A
 Frequencies --    590.7245               593.3761               626.9763
 Red. masses --      3.7564                 7.3226                 4.0476
 Frc consts  --      0.7723                 1.5191                 0.9375
 IR Inten    --     19.4484               150.6212                35.3080

                     22                     23                     24
                      A                      A                      A
 Frequencies --    640.3580               662.6955               717.5195
 Red. masses --      2.3693                 6.0244                 1.7379
 Frc consts  --      0.5724                 1.5588                 0.5272
 IR Inten    --     10.8929                95.5094                44.8298

                     25                     26                     27
                      A                      A                      A
 Frequencies --    738.9768               740.9970               750.2440
 Red. masses --      3.4286                 1.5169                 1.9063
 Frc consts  --      1.1031                 0.4907                 0.6322
 IR Inten    --     17.7989                 7.5147                21.9894

                     28                     29                     30
                      A                      A                      A
 Frequencies --    771.5223               781.5925               803.8783
 Red. masses --      3.7767                 4.3912                 3.1592
 Frc consts  --      1.3245                 1.5805                 1.2028
 IR Inten    --     47.1499                38.5967                 4.8793

                     31                     32                     33
                      A                      A                      A
 Frequencies --    828.9780               856.7780               860.5798
 Red. masses --      1.8148                 1.3584                 1.2773
 Frc consts  --      0.7348                 0.5875                 0.5573
 IR Inten    --     13.6469               132.2049                11.0467

                     34                     35                     36
                      A                      A                      A
 Frequencies --    882.8336               910.9798               953.1448
 Red. masses --      4.8263                 7.1459                 1.3770
 Frc consts  --      2.2162                 3.4940                 0.7371
 IR Inten    --      0.9298               113.7270               158.1219

                     37                     38                     39
                      A                      A                      A
 Frequencies --    960.4500               991.4642              1026.0306
 Red. masses --      1.2243                 2.9822                 2.1884
 Frc consts  --      0.6654                 1.7272                 1.3574
 IR Inten    --    110.0002                30.6679                61.8742

                     40                     41                     42
                      A                      A                      A
 Frequencies --   1071.0699              1107.8240              1118.9893
 Red. masses --      1.6166                 2.3495                 1.6234
 Frc consts  --      1.0927                 1.6989                 1.1976
 IR Inten    --    192.7135                39.9975                54.6519

                     43                     44                     45
                      A                      A                      A
 Frequencies --   1144.9228              1164.2239              1190.8420
 Red. masses --      1.5863                 1.1484                 1.8784
 Frc consts  --      1.2251                 0.9171                 1.5694
 IR Inten    --    111.3507                81.4055                21.2027

                     46                     47                     48
                      A                      A                      A
 Frequencies --   1234.2113              1254.7370              1260.5831
 Red. masses --      2.1002                 2.1962                 3.9233
 Frc consts  --      1.8849                 2.0372                 3.6732
 IR Inten    --    115.9724               457.4781               982.1742

                     49                     50                     51
                      A                      A                      A
 Frequencies --   1299.3241              1306.4240              1347.2049
 Red. masses --      2.0020                 2.4419                 2.1707
 Frc consts  --      1.9913                 2.4555                 2.3212
 IR Inten    --     62.4188                 4.4602                 3.2572

                     52                     53                     54
                      A                      A                      A
 Frequencies --   1363.4411              1409.3367              1437.8905
 Red. masses --      4.6271                 3.9131                 2.3458
 Frc consts  --      5.0679                 4.5793                 2.8575
 IR Inten    --     67.2531                37.4015                10.1626

                     55                     56                     57
                      A                      A                      A
 Frequencies --   1460.7104              1470.7369              1506.7775
 Red. masses --      6.9922                 2.9840                 7.7895
 Frc consts  --      8.7901                 3.8029                10.4197
 IR Inten    --    813.2062                56.6147              6580.5477

                     58                     59                     60
                      A                      A                      A
 Frequencies --   1508.9170              1520.6864              1552.3430
 Red. masses --      2.8055                 5.1485                 6.1087
 Frc consts  --      3.7635                 7.0147                 8.6731
 IR Inten    --     10.9655              2030.1471               639.1850

                     61                     62                     63
                      A                      A                      A
 Frequencies --   1555.7764              1596.9523              1636.1298
 Red. masses --      5.0877                 5.6849                 6.0825
 Frc consts  --      7.2555                 8.5419                 9.5933
 IR Inten    --    169.8117                 7.5099               173.5330

                     64                     65                     66
                      A                      A                      A
 Frequencies --   3092.7723              3120.1661              3125.2844
 Red. masses --      1.0835                 1.0921                 1.0846
 Frc consts  --      6.1065                 6.2640                 6.2415
 IR Inten    --    146.6636               189.7468                76.2379

                     67                     68                     69
                      A                      A                      A
 Frequencies --   3129.6041              3134.4417              3148.0929
 Red. masses --      1.0876                 1.0903                 1.0940
 Frc consts  --      6.2763                 6.3113                 6.3878
 IR Inten    --    149.0186               104.8712               359.8902

                     70                     71                     72
                      A                      A                      A
 Frequencies --   3186.4143              3241.3807              3585.4050
 Red. masses --      1.0925                 1.0944                 1.0799
 Frc consts  --      6.5353                 6.7745                 8.1796
 IR Inten    --      5.3491                18.1860              1954.4633

 - Thermochemistry -
 -------------------
 Temperature   298.150 Kelvin.  Pressure   1.00000 Atm.
 Atom     1 has atomic number  6 and mass  12.00000

 Molecular mass:   223.06333 amu.
 Principal axes and moments of inertia in atomic units:
                           1         2         3
     Eigenvalues --  1549.317127045.408708298.36371
           X           -0.63289   0.76805  -0.09768
           Y            0.76829   0.63862   0.04348
           Z           -0.09578   0.04753   0.99427
 This molecule is an asymmetric top.
 Rotational symmetry number  1.
 Warning -- assumption of classical behavior for rotation
           may cause significant error
 Rotational temperatures (Kelvin)      0.05590     0.01229     0.01044
 Rotational constants (GHZ):           1.16486     0.25616     0.21748
 Zero-point vibrational energy     499751.0 (Joules/Mol)
                                  119.44335 (Kcal/Mol)
 Warning -- explicit consideration of  20 degrees of freedom as
           vibrations may cause significant error
 Vibrational temperatures:     62.22    87.49   112.32   174.89   266.95
          (Kelvin)            309.20   329.06   386.78   401.56   467.87
                              504.96   584.05   621.98   668.87   684.92
                              715.55   801.59   845.43   849.92   853.74
                              902.08   921.33   953.47  1032.35  1063.22
                             1066.13  1079.43  1110.05  1124.54  1156.60
                             1192.71  1232.71  1238.18  1270.20  1310.70
                             1371.36  1381.87  1426.50  1476.23  1541.03
                             1593.91  1609.98  1647.29  1675.06  1713.36
                             1775.75  1805.29  1813.70  1869.44  1879.65
                             1938.33  1961.69  2027.72  2068.80  2101.64
                             2116.06  2167.92  2170.99  2187.93  2233.48
                             2238.42  2297.66  2354.03  4449.81  4489.22
                             4496.59  4502.80  4509.76  4529.40  4584.54
                             4663.62  5158.60

 Zero-point correction=                           0.190345 (Hartree/Particle)
 Thermal correction to Energy=                    0.203378
 Thermal correction to Enthalpy=                  0.204322
 Thermal correction to Gibbs Free Energy=         0.150223
 Sum of electronic and zero-point Energies=           -744.072179
 Sum of electronic and thermal Energies=              -744.059146
 Sum of electronic and thermal Enthalpies=            -744.058202
 Sum of electronic and thermal Free Energies=         -744.112301

                     E (Thermal)             CV                S
                      KCal/Mol        Cal/Mol-Kelvin    Cal/Mol-Kelvin
 Total                  127.622             52.557            113.861
 Electronic               0.000              0.000              0.000
 Translational            0.889              2.981             42.109
 Rotational               0.889              2.981             32.871
 Vibrational            125.844             46.595             38.881
 Vibration     1          0.595              1.980              5.105
 Vibration     2          0.597              1.973              4.431
 Vibration     3          0.599              1.964              3.939
 Vibration     4          0.609              1.931              3.076
 Vibration     5          0.632              1.860              2.272
 Vibration     6          0.645              1.818              2.002
 Vibration     7          0.651              1.797              1.889
 Vibration     8          0.673              1.730              1.604
 Vibration     9          0.679              1.712              1.539
 Vibration    10          0.709              1.625              1.284
 Vibration    11          0.728              1.573              1.162
 Vibration    12          0.771              1.457              0.941
 Vibration    13          0.793              1.400              0.851
 Vibration    14          0.822              1.328              0.752
 Vibration    15          0.833              1.303              0.721
 Vibration    16          0.853              1.256              0.665
 Vibration    17          0.913              1.124              0.530
 Vibration    18          0.945              1.058              0.471
 Vibration    19          0.948              1.052              0.466
 Vibration    20          0.951              1.046              0.461

 Optimization completed.
    -- Stationary point found.
 Normal termination of Gaussian 16 at Sat Jan  6 04:46:24 2024.
