 Q-Chem 5.4, Q-Chem, Inc., Pleasanton, CA (2021)
 Q-Chem 5.4.0 for Intel X86 EM64T Linux

User input:
--------------------------------------------------------------
$molecule
-1 1
C                 -1.8580200000      2.7968120000     -0.7932290000
C                 -2.9308370000      1.9638980000     -0.5004900000
C                 -2.6842500000      0.6610020000     -0.0667300000
C                 -0.5457990000      2.3352550000     -0.6549940000
C                 -0.2877370000      1.0154030000     -0.2156430000
C                 -1.3823280000      0.1881750000      0.0755030000
C                  0.5713570000      3.2599230000     -0.9792830000
C                  2.0208830000      2.7160880000     -0.8153840000
C                  2.1662000000      1.3421810000     -0.3562460000
C                  1.1076500000      0.5512780000     -0.0775560000
O                  0.3951980000      4.4000600000     -1.3593870000
O                  2.9602220000      3.4488330000     -1.0733110000
H                 -2.0090400000      3.8147640000     -1.1326370000
H                 -3.9484050000      2.3239000000     -0.6084080000
H                 -3.5131650000      0.0006380000      0.1651060000
H                 -1.2057830000     -0.8227590000      0.4123190000
H                  3.1706040000      0.9527630000     -0.2383390000
S                  1.4444230000     -1.1686950000      0.4951220000
O                  2.9167020000     -1.2788840000      0.5133440000
O                  0.7657270000     -2.0016540000     -0.5292340000
O                  0.7957510000     -1.2103760000      1.8297480000
$end
$rem
MAX_SCF_CYCLES=200
BASIS  =  6-311++G(d,p)
GUI  =  2
JOB_TYPE  =  SP
METHOD  =  B3LYP
SOLVENT_METHOD = COSMO
$end
$solvent
dielectric 37.219
opticaldielectric 1.43
$end

--------------------------------------------------------------

             Standard Nuclear Orientation (Angstroms)
    I     Atom           X                Y                Z
 ----------------------------------------------------------------
    1      C       2.7034554866     1.3399303039     0.0001300507
    2      C       2.3277248954     2.6775418526    -0.0000612089
    3      C       0.9715427038     3.0050486665    -0.0002123684
    4      C       1.7340193014     0.3328249394     0.0001220655
    5      C       0.3568732951     0.6570215850     0.0000167557
    6      C      -0.0046868197     2.0121879491    -0.0001373528
    7      C       2.1806870572    -1.0844610973     0.0001118857
    8      C       1.0770643017    -2.1825329477    -0.0000858131
    9      C      -0.3073214599    -1.7319541771     0.0000276479
   10      C      -0.6482551625    -0.4252453404     0.0000479235
   11      O       3.3516433719    -1.4073925464     0.0002165647
   12      O       1.4095167322    -3.3552539903    -0.0003442356
   13      H       3.7464130493     1.0458714489     0.0002619151
   14      H       3.0814987448     3.4576170753    -0.0000772849
   15      H       0.6650014507     4.0457028175    -0.0003492102
   16      H      -1.0510836237     2.2798714063    -0.0001890664
   17      H      -1.0842248126    -2.4874652720     0.0000016160
   18      S      -2.4431224441    -0.0031852648     0.0000445145
   19      O      -3.1372166836    -1.3063783741    -0.0000870338
   20      O      -2.6003174373     0.7913129234    -1.2440682352
   21      O      -2.6004093955     0.7911115320     1.2442682254
 ----------------------------------------------------------------

   10   -1158.6391200926      7.43e-06  Convergence criterion met
 Total energy in the final basis set =    -1158.6391200926
    5   -1158.7322152831      7.90e-06  Convergence criterion met
 Total energy in the final basis set =    -1158.7322152831

                    Orbital Energies (a.u.)
 --------------------------------------------------------------

 Alpha MOs
 -- Occupied --
-89.0629 -19.1459 -19.1451 -19.1094 -19.1065 -19.1065 -10.2872 -10.2856
-10.2380 -10.2190 -10.2064 -10.1993 -10.1976 -10.1954 -10.1936 -10.1928
 -8.1216  -6.0843  -6.0842  -6.0836  -1.1289  -1.0876  -1.0611  -0.9953
 -0.9900  -0.8950  -0.8406  -0.7835  -0.7644  -0.7195  -0.6518  -0.6372
 -0.6193  -0.5795  -0.5466  -0.5306  -0.5163  -0.4865  -0.4769  -0.4706
 -0.4692  -0.4602  -0.4595  -0.4572  -0.4466  -0.4237  -0.4059  -0.3937
 -0.3780  -0.3752  -0.3529  -0.3473  -0.3447  -0.3261  -0.3163  -0.3038
 -0.3019  -0.2793  -0.2724  -0.2675  -0.2600

          Ground-State Mulliken Net Atomic Charges

     Atom                 Charge (a.u.)
  ----------------------------------------
      1 C                     0.172612
      2 C                    -0.505705
      3 C                    -0.841672
      4 C                     0.449963
      5 C                     1.106117
      6 C                    -0.500536
      7 C                    -0.493260
      8 C                     0.133147
      9 C                     0.007049
     10 C                    -0.576382
     11 O                    -0.291329
     12 O                    -0.327449
     13 H                     0.202324
     14 H                     0.228780
     15 H                     0.232521
     16 H                     0.178211
     17 H                     0.284364
     18 S                     0.546167
     19 O                    -0.273356
     20 O                    -0.365825
     21 O                    -0.365741
  ----------------------------------------
  Sum of atomic charges =    -1.000000

                    Cartesian Multipole Moments
 -----------------------------------------------------------------
    Charge (ESU x 10^10)
                -4.8032
    Dipole Moment (Debye)
         X       9.9505      Y       6.9489      Z      -0.0001
       Tot      12.1367
    Quadrupole Moments (Debye-Ang)
        XX    -151.5930     XY      19.2594     YY    -113.3366
        XZ       0.0010     YZ      -0.0021     ZZ    -109.0735

 Total job time:  44.21s(wall), 335.82s(cpu)
        *  Thank you very much for using Q-Chem.  Have a nice day.  *
