 Gaussian 16, Revision A.03,
 Gaussian 16:  ES64L-G16RevA.03 25-Dec-2016

 ----------------------------------------------------------------
 #P UB3LYP/6-311++G(d,p) SCRF=(PCM,Solvent=n,n-DiMethylFormamide)
 ----------------------------------------------------------------

 -------
 Reduced
 -------
 Symbolic Z-matrix:
 Charge = -2 Multiplicity = 1

                         Standard orientation:
 ---------------------------------------------------------------------
 Center     Atomic      Atomic             Coordinates (Angstroms)
 Number     Number       Type             X           Y           Z
 ---------------------------------------------------------------------
      1          8           0       -2.493153    2.227231   -0.080712
      2          6           0       -2.470229    0.863649   -0.083641
      3          6           0       -3.640363    0.155463   -0.323089
      4          6           0       -3.639865   -1.252082   -0.342938
      5          6           0       -2.441663   -1.938508   -0.111306
      6          6           0       -1.259225   -1.251489    0.145832
      7          6           0        0.000002   -1.955955    0.583541
      8          6           0        1.259151   -1.251544    0.145619
      9          6           0        2.441506   -1.938589   -0.111972
     10          6           0        3.639700   -1.252152   -0.343580
     11          6           0        3.640344    0.155402   -0.323156
     12          6           0        2.470291    0.863610   -0.083236
     13          8           0        2.493279    2.227131   -0.079515
     14          6           0        1.235203    0.175974    0.167051
     15          6           0        0.000033    0.894851    0.306902
     16          8           0        0.000123    2.238125    0.320252
     17          6           0       -1.235161    0.176052    0.166940
     18          1           0       -1.526674    2.490883    0.079376
     19          1           0       -4.555080    0.717088   -0.494272
     20          1           0       -4.566997   -1.798420   -0.500217
     21          1           0       -2.439218   -3.026970   -0.086619
     22          1           0        0.000002   -3.001569    0.263775
     23          1           0        0.000145   -1.971025    1.702559
     24          1           0        2.439027   -3.027050   -0.087555
     25          1           0        4.566755   -1.798530   -0.501220
     26          1           0        4.555101    0.717002   -0.494169
     27          1           0        1.526612    2.490597    0.080338
 ---------------------------------------------------------------------

 SCF Done:  E(UB3LYP) =  -765.611538863     A.U. after   21 cycles

 The electronic state is 1-A.
 Alpha  occ. eigenvalues --  -19.09533 -19.09530 -19.02926 -10.18948 -10.18947
 Alpha  occ. eigenvalues --  -10.15230 -10.14778 -10.13570 -10.13569 -10.13478
 Alpha  occ. eigenvalues --  -10.13478 -10.13293 -10.13293 -10.13293 -10.13291
 Alpha  occ. eigenvalues --  -10.12991 -10.12991  -1.01447  -1.00943  -0.92818
 Alpha  occ. eigenvalues --   -0.82816  -0.80602  -0.75509  -0.71829  -0.70470
 Alpha  occ. eigenvalues --   -0.69571  -0.65655  -0.60223  -0.59157  -0.55051
 Alpha  occ. eigenvalues --   -0.54867  -0.52324  -0.48482  -0.47864  -0.47714
 Alpha  occ. eigenvalues --   -0.43936  -0.43332  -0.42297  -0.40774  -0.39822
 Alpha  occ. eigenvalues --   -0.38050  -0.37561  -0.37437  -0.36908  -0.36707
 Alpha  occ. eigenvalues --   -0.36086  -0.34912  -0.33282  -0.33259  -0.31022
 Alpha  occ. eigenvalues --   -0.30759  -0.29585  -0.29325  -0.29285  -0.22063
 Alpha  occ. eigenvalues --   -0.21495  -0.20936  -0.19624  -0.19147  -0.07583
 Alpha virt. eigenvalues --   -0.00031   0.00861   0.01084   0.01391   0.01522
 Alpha virt. eigenvalues --    0.02418   0.02737   0.03471   0.03854   0.04437
 Alpha virt. eigenvalues --    0.04626   0.04916   0.06341   0.06883   0.06952

  Beta  occ. eigenvalues --  -19.09533 -19.09530 -19.02926 -10.18948 -10.18947
  Beta  occ. eigenvalues --  -10.15230 -10.14778 -10.13570 -10.13569 -10.13478
  Beta  occ. eigenvalues --  -10.13478 -10.13293 -10.13293 -10.13293 -10.13291
  Beta  occ. eigenvalues --  -10.12991 -10.12991  -1.01447  -1.00943  -0.92818
  Beta  occ. eigenvalues --   -0.82816  -0.80602  -0.75509  -0.71829  -0.70470
  Beta  occ. eigenvalues --   -0.69571  -0.65655  -0.60223  -0.59157  -0.55051
  Beta  occ. eigenvalues --   -0.54867  -0.52324  -0.48482  -0.47864  -0.47714
  Beta  occ. eigenvalues --   -0.43936  -0.43332  -0.42297  -0.40774  -0.39822
  Beta  occ. eigenvalues --   -0.38050  -0.37561  -0.37437  -0.36908  -0.36707
  Beta  occ. eigenvalues --   -0.36086  -0.34912  -0.33282  -0.33259  -0.31022
  Beta  occ. eigenvalues --   -0.30759  -0.29585  -0.29325  -0.29285  -0.22063
  Beta  occ. eigenvalues --   -0.21495  -0.20936  -0.19624  -0.19147  -0.07583
  Beta virt. eigenvalues --   -0.00031   0.00861   0.01084   0.01391   0.01522
  Beta virt. eigenvalues --    0.02418   0.02737   0.03471   0.03854   0.04437
  Beta virt. eigenvalues --    0.04626   0.04916   0.06341   0.06883   0.06952

 Mulliken charges and spin densities:
               1          2
     1  O   -0.446727   0.000000
     2  C   -0.244298   0.000000
     3  C   -0.420480  -0.000000
     4  C   -0.366480  -0.000000
     5  C   -0.099687  -0.000000
     6  C    0.262326  -0.000000
     7  C   -1.307209  -0.000000
     8  C    0.261772   0.000000
     9  C   -0.099488  -0.000000
    10  C   -0.366341  -0.000000
    11  C   -0.420697   0.000000
    12  C   -0.243683   0.000000
    13  O   -0.446871  -0.000000
    14  C    0.699220  -0.000000
    15  C   -0.489113   0.000000
    16  O   -0.737078  -0.000000
    17  C    0.700235  -0.000000
    18  H    0.384226  -0.000000
    19  H    0.143705  -0.000000
    20  H    0.146126   0.000000
    21  H    0.130900  -0.000000
    22  H    0.070902   0.000000
    23  H    0.083638  -0.000000
    24  H    0.130907  -0.000000
    25  H    0.146128  -0.000000
    26  H    0.143689   0.000000
    27  H    0.384379  -0.000000
 Sum of Mulliken charges =  -2.00000  -0.00000

 Dipole moment (field-independent basis, Debye):
    X=             -0.0014    Y=             -6.7405    Z=             -0.3069  Tot=              6.7474
 Quadrupole moment (field-independent basis, Debye-Ang):
   XX=           -163.2075   YY=           -136.3912   ZZ=           -116.7791
   XY=             -0.0027   XZ=             -0.0027   YZ=             -1.8521

 Normal termination of Gaussian 16 at Sat Jan 13 19:23:31 2024.
