 Gaussian 16, Revision A.03,
 Gaussian 16:  ES64L-G16RevA.03 25-Dec-2016

 --------------------------------------
 #P UB3LYP/6-311++G(d,p) nosym opt freq
 --------------------------------------

 -------
 Reduced
 -------
 Symbolic Z-matrix:
 Charge = -2 Multiplicity = 1

 SCF Done:  E(UB3LYP) =  -765.369002249     A.U. after   35 cycles
 SCF Done:  E(UB3LYP) =  -765.369002342     A.U. after   25 cycles
 SCF Done:  E(UB3LYP) =  -765.369002175     A.U. after   31 cycles
 SCF Done:  E(UB3LYP) =  -765.369002437     A.U. after   24 cycles
 Optimization completed.
    -- Stationary point found.
 Normal termination of Gaussian 16 at Tue Jan  9 21:04:37 2024.

 ----------------------------------------------------------------------
 #P Geom=AllCheck Guess=TCheck SCRF=Check GenChk UB3LYP/6-311++G(d,p) F
 req
 ----------------------------------------------------------------------

 Structure from the checkpoint file:  "340-an.chk"
 -------
 Reduced
 -------
 Charge = -2 Multiplicity = 1

                          Input orientation:
 ---------------------------------------------------------------------
 Center     Atomic      Atomic             Coordinates (Angstroms)
 Number     Number       Type             X           Y           Z
 ---------------------------------------------------------------------
      1          8           0        2.249352    2.769313   -0.251022
      2          6           0        2.351220    1.413184   -0.148914
      3          6           0        3.591856    0.830241    0.072618
      4          6           0        3.720907   -0.566301    0.193431
      5          6           0        2.580107   -1.370381    0.081398
      6          6           0        1.328262   -0.810892   -0.155517
      7          6           0        0.117863   -1.654012   -0.467922
      8          6           0       -1.176257   -1.030658   -0.009546
      9          6           0       -2.276181   -1.796466    0.364688
     10          6           0       -3.518608   -1.201462    0.615391
     11          6           0       -3.648826    0.194945    0.494071
     12          6           0       -2.562163    0.982054    0.136626
     13          8           0       -2.709725    2.334057    0.036391
     14          6           0       -1.283892    0.387646   -0.134726
     15          6           0       -0.128319    1.198705   -0.397063
     16          8           0       -0.251753    2.531857   -0.506758
     17          6           0        1.172893    0.603271   -0.277597
     18          1           0        1.255910    2.934583   -0.373414
     19          1           0        4.459029    1.480997    0.149823
     20          1           0        4.700889   -1.015992    0.335592
     21          1           0        2.675804   -2.453583    0.135077
     22          1           0        0.229723   -2.668037   -0.074474
     23          1           0        0.061778   -1.754778   -1.581084
     24          1           0       -2.175574   -2.879216    0.418351
     25          1           0       -4.382601   -1.812943    0.865228
     26          1           0       -4.601078    0.686042    0.676992
     27          1           0       -1.780618    2.667827   -0.197638
 ---------------------------------------------------------------------

 SCF Done:  E(UB3LYP) =  -765.369002437     A.U. after    2 cycles

 Alpha  occ. eigenvalues --  -18.88851 -18.88848 -18.83507  -9.99144  -9.99143
 Alpha  occ. eigenvalues --   -9.96928  -9.94886  -9.94049  -9.94048  -9.93735
 Alpha  occ. eigenvalues --   -9.93734  -9.93458  -9.93458  -9.93284  -9.93283
 Alpha  occ. eigenvalues --   -9.93248  -9.93248  -0.80743  -0.80159  -0.72954
 Alpha  occ. eigenvalues --   -0.62845  -0.60575  -0.55593  -0.51908  -0.50469
 Alpha  occ. eigenvalues --   -0.49546  -0.45697  -0.40407  -0.39150  -0.34900
 Alpha  occ. eigenvalues --   -0.34730  -0.32259  -0.28363  -0.27855  -0.27564
 Alpha  occ. eigenvalues --   -0.23988  -0.23291  -0.22159  -0.20588  -0.20017
 Alpha  occ. eigenvalues --   -0.17733  -0.17588  -0.17176  -0.16580  -0.16278
 Alpha  occ. eigenvalues --   -0.15790  -0.14920  -0.13327  -0.13241  -0.10655
 Alpha  occ. eigenvalues --   -0.10540  -0.09354  -0.09030  -0.08830  -0.01653
 Alpha  occ. eigenvalues --   -0.01306  -0.00705   0.00909   0.01458   0.13022
 Alpha virt. eigenvalues --    0.14845   0.15016   0.16510   0.17327   0.17905
 Alpha virt. eigenvalues --    0.19110   0.19335   0.20519   0.21319   0.22601
 Alpha virt. eigenvalues --    0.22938   0.23160   0.23878   0.24397   0.24839

  Beta  occ. eigenvalues --  -18.88851 -18.88848 -18.83507  -9.99144  -9.99143
  Beta  occ. eigenvalues --   -9.96928  -9.94886  -9.94049  -9.94048  -9.93735
  Beta  occ. eigenvalues --   -9.93734  -9.93458  -9.93458  -9.93284  -9.93283
  Beta  occ. eigenvalues --   -9.93248  -9.93248  -0.80743  -0.80159  -0.72954
  Beta  occ. eigenvalues --   -0.62845  -0.60575  -0.55593  -0.51908  -0.50469
  Beta  occ. eigenvalues --   -0.49546  -0.45697  -0.40407  -0.39150  -0.34900
  Beta  occ. eigenvalues --   -0.34730  -0.32259  -0.28363  -0.27855  -0.27564
  Beta  occ. eigenvalues --   -0.23988  -0.23291  -0.22159  -0.20588  -0.20017
  Beta  occ. eigenvalues --   -0.17733  -0.17588  -0.17176  -0.16580  -0.16278
  Beta  occ. eigenvalues --   -0.15790  -0.14920  -0.13327  -0.13241  -0.10655
  Beta  occ. eigenvalues --   -0.10540  -0.09354  -0.09030  -0.08830  -0.01653
  Beta  occ. eigenvalues --   -0.01306  -0.00705   0.00909   0.01458   0.13022
  Beta virt. eigenvalues --    0.14845   0.15016   0.16510   0.17327   0.17905
  Beta virt. eigenvalues --    0.19110   0.19335   0.20519   0.21319   0.22601
  Beta virt. eigenvalues --    0.22938   0.23160   0.23878   0.24397   0.24839

 Mulliken charges and spin densities:
               1          2
     1  O   -0.391796   0.000000
     2  C   -0.162471  -0.000000
     3  C    0.309005  -0.000000
     4  C    0.660512  -0.000000
     5  C   -0.415123   0.000000
     6  C   -0.645915   0.000000
     7  C    0.867149  -0.000000
     8  C   -0.645900  -0.000000
     9  C   -0.414741   0.000000
    10  C    0.659204   0.000000
    11  C    0.307483   0.000000
    12  C   -0.161344   0.000000
    13  O   -0.391932  -0.000000
    14  C    0.700237  -0.000000
    15  C   -0.374807   0.000000
    16  O   -0.582776  -0.000000
    17  C    0.701249   0.000000
    18  H    0.357160  -0.000000
    19  H    0.072546   0.000000
    20  H   -1.030820   0.000000
    21  H   -0.389632   0.000000
    22  H    0.011034   0.000000
    23  H   -0.049581   0.000000
    24  H   -0.389309  -0.000000
    25  H   -1.029482  -0.000000
    26  H    0.072694   0.000000
    27  H    0.357355  -0.000000
 Sum of Mulliken charges =  -2.00000   0.00000

 Dipole moment (field-independent basis, Debye):
    X=              0.0194    Y=             -0.0790    Z=              0.3074  Tot=              0.3180
 Quadrupole moment (field-independent basis, Debye-Ang):
   XX=           -232.2583   YY=           -165.3793   ZZ=           -126.2013
   XY=             -5.7233   XZ=              5.9175   YZ=              3.4988

  Exact polarizability:5490.752 366.5891335.423-291.979 -77.182 406.160
 Approx polarizability:7120.813 421.6812164.227-364.048-300.915 478.760

                      1                      2                      3
                      A                      A                      A
 Frequencies --     64.7699                78.8074               125.0850
 Red. masses --      5.3049                 7.1598                 8.1864
 Frc consts  --      0.0131                 0.0262                 0.0755
 IR Inten    --      6.6771                 5.2229                 2.8005

                      4                      5                      6
                      A                      A                      A
 Frequencies --    212.7457               218.2641               243.1748
 Red. masses --      4.5207                 4.4466                 4.8881
 Frc consts  --      0.1206                 0.1248                 0.1703
 IR Inten    --      0.1188                20.5187                 1.9162

                      7                      8                      9
                      A                      A                      A
 Frequencies --    265.4109               268.0453               334.8555
 Red. masses --      5.7270                 2.9233                 6.2821
 Frc consts  --      0.2377                 0.1237                 0.4150
 IR Inten    --     10.9813                25.7995                 0.0077

                     10                     11                     12
                      A                      A                      A
 Frequencies --    347.9965               411.5383               429.1079
 Red. masses --      6.1960                 4.2110                11.0916
 Frc consts  --      0.4421                 0.4202                 1.2033
 IR Inten    --     40.3937                19.0598                80.7449

                     13                     14                     15
                      A                      A                      A
 Frequencies --    480.8484               487.2055               489.6090
 Red. masses --      5.4166                 8.3997                 4.8449
 Frc consts  --      0.7379                 1.1747                 0.6843
 IR Inten    --      5.8925               143.8536                 5.0919

                     16                     17                     18
                      A                      A                      A
 Frequencies --    510.4905               544.9023               549.3516
 Red. masses --      5.2311                 3.8312                 6.6242
 Frc consts  --      0.8032                 0.6702                 1.1778
 IR Inten    --     88.6107                41.2211                 0.3709

                     19                     20                     21
                      A                      A                      A
 Frequencies --    564.5112               591.6904               597.0879
 Red. masses --      4.6570                 4.5713                 4.7109
 Frc consts  --      0.8744                 0.9429                 0.9895
 IR Inten    --     68.1586                 4.9482                68.0092

                     22                     23                     24
                      A                      A                      A
 Frequencies --    601.8665               653.9664               710.6747
 Red. masses --      7.9902                 5.1532                 2.4832
 Frc consts  --      1.7053                 1.2985                 0.7389
 IR Inten    --    295.8483                44.0454               489.1885

                     25                     26                     27
                      A                      A                      A
 Frequencies --    743.3454               757.5899               766.1551
 Red. masses --      1.8362                 1.7064                 5.4020
 Frc consts  --      0.5978                 0.5770                 1.8683
 IR Inten    --     22.6347               197.7871                 2.9843

                     28                     29                     30
                      A                      A                      A
 Frequencies --    767.7144               801.4033               835.7577
 Red. masses --      2.3286                 5.3438                 1.5332
 Frc consts  --      0.8086                 2.0221                 0.6310
 IR Inten    --    105.8615                44.8537               697.9078

                     31                     32                     33
                      A                      A                      A
 Frequencies --    836.3634               871.0575               875.1710
 Red. masses --      1.4700                 1.2854                 1.2663
 Frc consts  --      0.6059                 0.5746                 0.5714
 IR Inten    --     59.3265                88.0236               145.2505

                     34                     35                     36
                      A                      A                      A
 Frequencies --    917.7305               935.4396               989.4558
 Red. masses --      5.4099                 2.0841                 1.0466
 Frc consts  --      2.6846                 1.0745                 0.6037
 IR Inten    --      4.7214                67.1931                 1.4676

                     37                     38                     39
                      A                      A                      A
 Frequencies --    998.2655              1010.2717              1024.3270
 Red. masses --      1.0677                 4.0847                 3.3028
 Frc consts  --      0.6269                 2.4563                 2.0418
 IR Inten    --    120.2140                 5.7651               199.5999

                     40                     41                     42
                      A                      A                      A
 Frequencies --   1050.2276              1065.0688              1128.4590
 Red. masses --      1.8946                 2.8534                 3.5347
 Frc consts  --      1.2312                 1.9071                 2.6520
 IR Inten    --    712.4604               159.8482               486.6674

                     43                     44                     45
                      A                      A                      A
 Frequencies --   1154.7928              1155.1696              1178.3892
 Red. masses --      1.2466                 1.2630                 1.2043
 Frc consts  --      0.9794                 0.9930                 0.9853
 IR Inten    --     87.4911               249.0333                10.0288

                     46                     47                     48
                      A                      A                      A
 Frequencies --   1226.9339              1243.7322              1265.9899
 Red. masses --      2.2989                 1.3755                 4.5735
 Frc consts  --      2.0390                 1.2536                 4.3188
 IR Inten    --     82.3906               259.9962                95.6769

                     49                     50                     51
                      A                      A                      A
 Frequencies --   1269.9097              1283.4777              1298.4951
 Red. masses --      5.0687                 2.3137                 2.8910
 Frc consts  --      4.8160                 2.2456                 2.8720
 IR Inten    --    421.6576               407.3529                15.2321

                     52                     53                     54
                      A                      A                      A
 Frequencies --   1306.1882              1357.3656              1360.7415
 Red. masses --      3.5808                 6.3213                 6.6167
 Frc consts  --      3.5995                 6.8620                 7.2184
 IR Inten    --   2002.8113                51.2398                12.8534

                     55                     56                     57
                      A                      A                      A
 Frequencies --   1419.4154              1424.9853              1441.0751
 Red. masses --      2.2620                 2.5541                 1.1914
 Frc consts  --      2.6852                 3.0557                 1.4577
 IR Inten    --    241.6234               378.5882                33.7588

                     58                     59                     60
                      A                      A                      A
 Frequencies --   1485.0099              1485.4719              1526.0374
 Red. masses --      2.8386                 2.7744                 3.9614
 Frc consts  --      3.6882                 3.6070                 5.4354
 IR Inten    --     29.2960               181.2103                86.4965

                     61                     62                     63
                      A                      A                      A
 Frequencies --   1555.0376              1562.6738              1572.7842
 Red. masses --      5.2021                 3.5974                 3.6102
 Frc consts  --      7.4116                 5.1758                 5.2617
 IR Inten    --    236.1604                 3.4136              1712.6860

                     64                     65                     66
                      A                      A                      A
 Frequencies --   1621.5651              1675.6359              2715.7991
 Red. masses --      1.7834                 1.6244                 1.0742
 Frc consts  --      2.7630                 2.6873                 4.6680
 IR Inten    --     41.4293                16.7742              1273.7843

                     67                     68                     69
                      A                      A                      A
 Frequencies --   2771.1783              2875.2936              3045.3517
 Red. masses --      1.0745                 1.0782                 1.0833
 Frc consts  --      4.8618                 5.2520                 5.9193
 IR Inten    --    572.1568               419.6348               273.1461

                     70                     71                     72
                      A                      A                      A
 Frequencies --   3105.1577              3105.2732              3124.7952
 Red. masses --      1.0847                 1.0845                 1.0885
 Frc consts  --      6.1620                 6.1617                 6.2624
 IR Inten    --    272.1801                42.2840               554.5817

                     73                     74                     75
                      A                      A                      A
 Frequencies --   3124.9512              3141.2110              3141.4439
 Red. masses --      1.0885                 1.0937                 1.0939
 Frc consts  --      6.2629                 6.3581                 6.3605
 IR Inten    --    300.5378               977.4402                46.2966

 - Thermochemistry -
 -------------------
 Temperature   298.150 Kelvin.  Pressure   1.00000 Atm.
 Atom     1 has atomic number  8 and mass  15.99491

 Molecular mass:   226.06299 amu.
 Principal axes and moments of inertia in atomic units:
                           1         2         3
     Eigenvalues --  1957.822584705.420826534.32953
           X            0.99450  -0.09152   0.05084
           Y            0.08725   0.99291   0.08075
           Z           -0.05787  -0.07587   0.99544
 This molecule is an asymmetric top.
 Rotational symmetry number  1.
 Warning -- assumption of classical behavior for rotation
           may cause significant error
 Rotational temperatures (Kelvin)      0.04424     0.01841     0.01326
 Rotational constants (GHZ):           0.92181     0.38355     0.27619
 Zero-point vibrational energy     527416.4 (Joules/Mol)
                                  126.05555 (Kcal/Mol)
 Warning -- explicit consideration of  22 degrees of freedom as
           vibrations may cause significant error
 Vibrational temperatures:     93.19   113.39   179.97   306.09   314.03
          (Kelvin)            349.87   381.87   385.66   481.78   500.69
                              592.11   617.39   691.83   700.98   704.44
                              734.48   783.99   790.39   812.21   851.31
                              859.08   865.95   940.91  1022.50  1069.51
                             1090.00  1102.33  1104.57  1153.04  1202.47
                             1203.34  1253.26  1259.18  1320.41  1345.89
                             1423.61  1436.28  1453.56  1473.78  1511.04
                             1532.40  1623.60  1661.49  1662.03  1695.44
                             1765.28  1789.45  1821.48  1827.12  1846.64
                             1868.24  1879.31  1952.95  1957.80  2042.22
                             2050.24  2073.39  2136.60  2137.26  2195.63
                             2237.35  2248.34  2262.89  2333.07  2410.87
                             3907.43  3987.11  4136.91  4381.58  4467.63
                             4467.80  4495.88  4496.11  4519.50  4519.84

 Zero-point correction=                           0.200882 (Hartree/Particle)
 Thermal correction to Energy=                    0.213251
 Thermal correction to Enthalpy=                  0.214196
 Thermal correction to Gibbs Free Energy=         0.162587
 Sum of electronic and zero-point Energies=           -765.168120
 Sum of electronic and thermal Energies=              -765.155751
 Sum of electronic and thermal Enthalpies=            -765.154807
 Sum of electronic and thermal Free Energies=         -765.206416

                     E (Thermal)             CV                S
                      KCal/Mol        Cal/Mol-Kelvin    Cal/Mol-Kelvin
 Total                  133.817             52.022            108.620
 Electronic               0.000              0.000              0.000
 Translational            0.889              2.981             42.149
 Rotational               0.889              2.981             32.465
 Vibrational            132.040             46.061             34.006
 Vibration     1          0.597              1.971              4.306
 Vibration     2          0.600              1.963              3.920
 Vibration     3          0.610              1.928              3.020
 Vibration     4          0.644              1.821              2.020
 Vibration     5          0.646              1.813              1.973
 Vibration     6          0.659              1.774              1.780
 Vibration     7          0.671              1.736              1.626
 Vibration     8          0.673              1.732              1.609
 Vibration     9          0.716              1.606              1.237
 Vibration    10          0.726              1.579              1.175
 Vibration    11          0.776              1.445              0.921
 Vibration    12          0.790              1.407              0.862
 Vibration    13          0.837              1.293              0.708
 Vibration    14          0.843              1.278              0.691
 Vibration    15          0.845              1.273              0.685
 Vibration    16          0.866              1.227              0.632
 Vibration    17          0.900              1.151              0.555
 Vibration    18          0.905              1.141              0.546
 Vibration    19          0.920              1.108              0.515
 Vibration    20          0.949              1.049              0.464
 Vibration    21          0.955              1.038              0.455
 Vibration    22          0.960              1.028              0.446

 Optimization completed.
    -- Stationary point found.
 Normal termination of Gaussian 16 at Tue Jan  9 22:04:13 2024.
