 Gaussian 16, Revision A.03,
 Gaussian 16:  ES64L-G16RevA.03 25-Dec-2016

 ----------------------------------------------
 #P UB3LYP/6-311++G(d,p) nosym opt freq SCF=YQC
 ----------------------------------------------

 -------
 Reduced
 -------
 Symbolic Z-matrix:
 Charge = -2 Multiplicity = 1

 SCF Done:  E(UB3LYP) =  -839.352605486     a.u. after    8 cycles
 SCF Done:  E(UB3LYP) =  -839.356512666     A.U. after   33 cycles
 SCF Done:  E(UB3LYP) =  -839.360146391     a.u. after    5 cycles
 SCF Done:  E(UB3LYP) =  -839.401806622     a.u. after   22 cycles
 SCF Done:  E(UB3LYP) =  -839.402054150     A.U. after   28 cycles
 SCF Done:  E(UB3LYP) =  -839.409354503     a.u. after   41 cycles
 SCF Done:  E(UB3LYP) =  -839.410204093     A.U. after   31 cycles
 SCF Done:  E(UB3LYP) =  -839.428244019     a.u. after   26 cycles
 SCF Done:  E(UB3LYP) =  -839.428389930     A.U. after   33 cycles
 SCF Done:  E(UB3LYP) =  -839.428433629     a.u. after    6 cycles
 SCF Done:  E(UB3LYP) =  -839.442081671     a.u. after    1 cycles
 SCF Done:  E(UB3LYP) =  -839.442117822     A.U. after   16 cycles
 SCF Done:  E(UB3LYP) =  -839.442095709     a.u. after    1 cycles
 SCF Done:  E(UB3LYP) =  -839.442118327     A.U. after   16 cycles
 SCF Done:  E(UB3LYP) =  -839.442113886     a.u. after    1 cycles
 SCF Done:  E(UB3LYP) =  -839.442118473     A.U. after   15 cycles
 SCF Done:  E(UB3LYP) =  -839.442117381     a.u. after    1 cycles
 SCF Done:  E(UB3LYP) =  -839.442118501     A.U. after   12 cycles
 Optimization completed.
    -- Stationary point found.
 Normal termination of Gaussian 16 at Fri Dec 22 09:21:23 2023.

 ----------------------------------------------------------------------
 #P Geom=AllCheck Guess=TCheck SCRF=Check GenChk UB3LYP/6-311++G(d,p) F
 req
 ----------------------------------------------------------------------

 Structure from the checkpoint file:  "186-an.chk"
 -------
 Reduced
 -------
 Charge = -2 Multiplicity = 1

                          Input orientation:
 ---------------------------------------------------------------------
 Center     Atomic      Atomic             Coordinates (Angstroms)
 Number     Number       Type             X           Y           Z
 ---------------------------------------------------------------------
      1          8           0        3.074181   -2.185011    0.211120
      2          6           0        2.818894   -0.906368    0.258611
      3          6           0        3.828619    0.060847    0.420939
      4          6           0        3.532395    1.440061    0.470180
      5          6           0        2.234878    1.900865    0.360866
      6          6           0        1.161130    0.986647    0.194916
      7          6           0       -0.202605    1.526771    0.083477
      8          8           0       -0.403410    2.776800    0.135445
      9          6           0       -1.261496    0.539201   -0.085219
     10          6           0       -2.636703    0.884172   -0.209097
     11          8           0       -3.018357    2.214885   -0.171305
     12          6           0       -3.639844   -0.066257   -0.369820
     13          6           0       -3.311715   -1.449567   -0.416495
     14          6           0       -2.007594   -1.847676   -0.303126
     15          6           0       -0.947999   -0.894144   -0.136194
     16          6           0        0.370551   -1.337768   -0.023701
     17          8           0        0.631954   -2.692923   -0.075244
     18          6           0        1.436783   -0.416429    0.142003
     19          1           0        1.642175   -2.735421    0.028519
     20          1           0        4.852761   -0.296158    0.507678
     21          1           0        4.348988    2.152403    0.597371
     22          1           0        1.990209    2.955666    0.396729
     23          1           0       -3.976638    2.208895   -0.273202
     24          1           0       -4.676086    0.261218   -0.459131
     25          1           0       -4.104736   -2.184667   -0.542601
     26          1           0       -1.736337   -2.896045   -0.336039
 ---------------------------------------------------------------------

 SCF Done:  E(UB3LYP) =  -839.442118501     a.u. after    1 cycles
 SCF Done:  E(UB3LYP) =  -839.442118501     A.U. after    1 cycles

 Alpha  occ. eigenvalues --  -18.91709 -18.84813 -18.80152 -18.78261  -9.99512
 Alpha  occ. eigenvalues --   -9.95552  -9.95136  -9.94289  -9.93551  -9.92549
 Alpha  occ. eigenvalues --   -9.91906  -9.91324  -9.91273  -9.91131  -9.90518
 Alpha  occ. eigenvalues --   -9.89841  -9.89182  -9.89149  -0.82578  -0.76308
 Alpha  occ. eigenvalues --   -0.70825  -0.70682  -0.60017  -0.57124  -0.52689
 Alpha  occ. eigenvalues --   -0.49708  -0.47720  -0.45610  -0.41426  -0.38359
 Alpha  occ. eigenvalues --   -0.36567  -0.33607  -0.31329  -0.28127  -0.27116
 Alpha  occ. eigenvalues --   -0.24761  -0.23814  -0.21814  -0.20646  -0.20354
 Alpha  occ. eigenvalues --   -0.17810  -0.17270  -0.15921  -0.14909  -0.14339
 Alpha  occ. eigenvalues --   -0.14025  -0.13051  -0.12327  -0.11274  -0.10464
 Alpha  occ. eigenvalues --   -0.10420  -0.09507  -0.08667  -0.07791  -0.06720
 Alpha  occ. eigenvalues --   -0.04175  -0.00799   0.01391   0.01706   0.02239
 Alpha  occ. eigenvalues --    0.04964   0.06246   0.12104
 Alpha virt. eigenvalues --    0.15298   0.16890   0.17498   0.19459   0.19481
 Alpha virt. eigenvalues --    0.21180   0.21387   0.21767   0.22944   0.24186
 Alpha virt. eigenvalues --    0.25173   0.26101   0.26186   0.26212   0.26869

  Beta  occ. eigenvalues --  -18.91709 -18.84813 -18.80152 -18.78261  -9.99512
  Beta  occ. eigenvalues --   -9.95552  -9.95136  -9.94289  -9.93551  -9.92549
  Beta  occ. eigenvalues --   -9.91906  -9.91324  -9.91273  -9.91131  -9.90518
  Beta  occ. eigenvalues --   -9.89841  -9.89182  -9.89149  -0.82578  -0.76308
  Beta  occ. eigenvalues --   -0.70825  -0.70682  -0.60017  -0.57124  -0.52689
  Beta  occ. eigenvalues --   -0.49708  -0.47720  -0.45610  -0.41426  -0.38359
  Beta  occ. eigenvalues --   -0.36567  -0.33607  -0.31329  -0.28127  -0.27116
  Beta  occ. eigenvalues --   -0.24761  -0.23814  -0.21814  -0.20646  -0.20354
  Beta  occ. eigenvalues --   -0.17810  -0.17270  -0.15921  -0.14909  -0.14339
  Beta  occ. eigenvalues --   -0.14025  -0.13051  -0.12327  -0.11274  -0.10464
  Beta  occ. eigenvalues --   -0.10420  -0.09507  -0.08667  -0.07791  -0.06720
  Beta  occ. eigenvalues --   -0.04175  -0.00799   0.01391   0.01706   0.02239
  Beta  occ. eigenvalues --    0.04964   0.06246   0.12104
  Beta virt. eigenvalues --    0.15298   0.16890   0.17498   0.19459   0.19481
  Beta virt. eigenvalues --    0.21180   0.21387   0.21767   0.22944   0.24186
  Beta virt. eigenvalues --    0.25173   0.26101   0.26186   0.26212   0.26869

 Mulliken charges and spin densities:
               1          2
     1  O   -0.559052  -0.000000
     2  C   -0.678998   0.000000
     3  C   -0.074489  -0.000000
     4  C   -0.317064   0.000000
     5  C   -0.197061   0.000000
     6  C    0.616478  -0.000000
     7  C   -0.758252  -0.000000
     8  O   -0.447823   0.000000
     9  C    0.021181   0.000000
    10  C   -0.097184   0.000000
    11  O   -0.180154  -0.000000
    12  C   -0.375461  -0.000000
    13  C   -0.351318   0.000000
    14  C   -0.441758   0.000000
    15  C    0.708078  -0.000000
    16  C   -0.133166  -0.000000
    17  O   -0.483377   0.000000
    18  C    0.679808  -0.000000
    19  H    0.401886  -0.000000
    20  H    0.069483  -0.000000
    21  H    0.070459   0.000000
    22  H    0.111502   0.000000
    23  H    0.208791   0.000000
    24  H    0.017625  -0.000000
    25  H    0.083874   0.000000
    26  H    0.105991  -0.000000
 Sum of Mulliken charges =  -2.00000   0.00000

 Dipole moment (field-independent basis, Debye):
    X=             -6.3200    Y=             -0.0839    Z=             -0.8200  Tot=              6.3735
 Quadrupole moment (field-independent basis, Debye-Ang):
   XX=           -168.0951   YY=           -163.3585   ZZ=           -117.7837
   XY=             10.4190   XZ=             -4.8319   YZ=             -1.6056

  Exact polarizability: 390.799  20.365 246.846  29.316   9.316 126.876
 Approx polarizability: 638.148  31.998 464.394  49.635  19.757 189.566

                      1                      2                      3
                      A                      A                      A
 Frequencies --     45.7093                68.0016               101.1872
 Red. masses --      6.2984                 6.2436                 8.7120
 Frc consts  --      0.0078                 0.0170                 0.0526
 IR Inten    --      5.8688                 1.6645                 4.1089

                      4                      5                      6
                      A                      A                      A
 Frequencies --    137.4331               157.9565               196.1982
 Red. masses --      1.2061                 7.2023                 4.8144
 Frc consts  --      0.0134                 0.1059                 0.1092
 IR Inten    --     27.7863                 0.4726                 0.0032

                      7                      8                      9
                      A                      A                      A
 Frequencies --    208.3899               234.6648               287.8503
 Red. masses --      6.3528                 4.3088                 4.7285
 Frc consts  --      0.1625                 0.1398                 0.2308
 IR Inten    --      8.2917                 1.2282                 0.1906

                     10                     11                     12
                      A                      A                      A
 Frequencies --    306.4993               347.2441               373.1507
 Red. masses --      9.6417                 7.9670                 8.2933
 Frc consts  --      0.5337                 0.5660                 0.6804
 IR Inten    --      9.3899                 6.3339                 1.3856

                     13                     14                     15
                      A                      A                      A
 Frequencies --    380.6356               395.8652               438.0192
 Red. masses --      8.2688                 6.7829                 8.2047
 Frc consts  --      0.7059                 0.6263                 0.9275
 IR Inten    --      3.4914                26.2105                 8.0898

                     16                     17                     18
                      A                      A                      A
 Frequencies --    477.6188               479.6889               513.3881
 Red. masses --      4.7891                10.0825                 7.2897
 Frc consts  --      0.6437                 1.3669                 1.1320
 IR Inten    --      3.0434                 6.3879                 0.9197

                     19                     20                     21
                      A                      A                      A
 Frequencies --    524.0496               542.1295               568.4851
 Red. masses --      2.8851                 7.1002                 5.0408
 Frc consts  --      0.4668                 1.2295                 0.9598
 IR Inten    --     24.9679                 3.0630                 0.8897

                     22                     23                     24
                      A                      A                      A
 Frequencies --    591.3918               593.9893               605.1921
 Red. masses --      6.8264                 1.5274                 5.9336
 Frc consts  --      1.4067                 0.3175                 1.2804
 IR Inten    --     15.8957                39.1641                12.3759

                     25                     26                     27
                      A                      A                      A
 Frequencies --    644.6276               672.4359               691.3649
 Red. masses --      4.0427                 2.7021                 6.3412
 Frc consts  --      0.9898                 0.7199                 1.7858
 IR Inten    --     29.9737                37.6440                 3.0378

                     28                     29                     30
                      A                      A                      A
 Frequencies --    715.6648               748.8622               758.1905
 Red. masses --      1.4816                 2.2336                 2.2853
 Frc consts  --      0.4471                 0.7380                 0.7740
 IR Inten    --     18.1946                 2.9102                43.9046

                     31                     32                     33
                      A                      A                      A
 Frequencies --    775.3020               798.4647               809.9098
 Red. masses --      7.1205                 3.1954                 3.2097
 Frc consts  --      2.5218                 1.2003                 1.2405
 IR Inten    --     36.0903                 6.2934                 0.6711

                     34                     35                     36
                      A                      A                      A
 Frequencies --    836.9502               900.9161               906.6068
 Red. masses --      7.2871                 1.2246                 1.2253
 Frc consts  --      3.0075                 0.5856                 0.5934
 IR Inten    --     45.3147                 1.6824                 3.7686

                     37                     38                     39
                      A                      A                      A
 Frequencies --    906.8781               960.7569               971.0779
 Red. masses --      7.0828                 5.7092                 1.0517
 Frc consts  --      3.4321                 3.1049                 0.5843
 IR Inten    --     11.4630                76.7356                62.5957

                     40                     41                     42
                      A                      A                      A
 Frequencies --   1027.5964              1060.9330              1071.7726
 Red. masses --      5.2139                 1.8392                 1.9958
 Frc consts  --      3.2438                 1.2197                 1.3507
 IR Inten    --    153.8176                23.0446               198.9053

                     43                     44                     45
                      A                      A                      A
 Frequencies --   1134.2275              1148.2553              1156.9216
 Red. masses --      2.5394                 1.6750                 1.2073
 Frc consts  --      1.9248                 1.3012                 0.9521
 IR Inten    --     22.3618                57.0446                34.8747

                     46                     47                     48
                      A                      A                      A
 Frequencies --   1179.7322              1212.7928              1226.6773
 Red. masses --      2.1294                 2.9894                 2.1552
 Frc consts  --      1.7461                 2.5906                 1.9107
 IR Inten    --     36.1603               155.7114                 7.3960

                     49                     50                     51
                      A                      A                      A
 Frequencies --   1254.8484              1287.1978              1323.0567
 Red. masses --      2.7096                 3.4908                 3.8047
 Frc consts  --      2.5139                 3.4077                 3.9240
 IR Inten    --     47.0882               156.1813                75.2760

                     52                     53                     54
                      A                      A                      A
 Frequencies --   1327.7118              1367.3038              1401.5667
 Red. masses --      5.7926                 4.0543                 2.9715
 Frc consts  --      6.0163                 4.4657                 3.4391
 IR Inten    --     28.9674               113.6954                64.7795

                     55                     56                     57
                      A                      A                      A
 Frequencies --   1424.3086              1449.5417              1468.3843
 Red. masses --      3.0191                 3.8288                 2.8723
 Frc consts  --      3.6086                 4.7399                 3.6489
 IR Inten    --     25.9974                43.9281               922.6045

                     58                     59                     60
                      A                      A                      A
 Frequencies --   1502.1858              1511.5811              1525.3730
 Red. masses --      3.1543                 5.1075                 6.1154
 Frc consts  --      4.1937                 6.8757                 8.3836
 IR Inten    --     88.1572                12.8046               720.4521

                     61                     62                     63
                      A                      A                      A
 Frequencies --   1560.5114              1575.9084              1615.1491
 Red. masses --      4.6146                 5.6328                 5.9063
 Frc consts  --      6.6209                 8.2420                 9.0780
 IR Inten    --     42.4290                 3.2252                59.8855

                     64                     65                     66
                      A                      A                      A
 Frequencies --   1657.3353              2789.0479              3072.1614
 Red. masses --      1.7469                 1.0785                 1.0846
 Frc consts  --      2.8272                 4.9427                 6.0313
 IR Inten    --     16.1346               726.8927                91.2604

                     67                     68                     69
                      A                      A                      A
 Frequencies --   3079.8668              3111.2235              3121.5698
 Red. masses --      1.0841                 1.0903                 1.0900
 Frc consts  --      6.0589                 6.2182                 6.2575
 IR Inten    --     67.6117               101.8065               127.1719

                     70                     71                     72
                      A                      A                      A
 Frequencies --   3178.2107              3180.8127              3787.4652
 Red. masses --      1.0900                 1.0910                 1.0648
 Frc consts  --      6.4873                 6.5038                 8.9997
 IR Inten    --     35.2285                26.0702                 0.5145

 - Thermochemistry -
 -------------------
 Temperature   298.150 Kelvin.  Pressure   1.00000 Atm.
 Atom     1 has atomic number  8 and mass  15.99491

 Molecular mass:   240.04226 amu.
 Principal axes and moments of inertia in atomic units:
                           1         2         3
     Eigenvalues --  2343.973505040.839617384.81302
           X            0.98910   0.10407  -0.10416
           Y           -0.11050   0.99219  -0.05796
           Z            0.09731   0.06884   0.99287
 This molecule is an asymmetric top.
 Rotational symmetry number  1.
 Warning -- assumption of classical behavior for rotation
           may cause significant error
 Rotational temperatures (Kelvin)      0.03695     0.01718     0.01173
 Rotational constants (GHZ):           0.76995     0.35802     0.24439
 Zero-point vibrational energy     475300.1 (Joules/Mol)
                                  113.59946 (Kcal/Mol)
 Warning -- explicit consideration of  24 degrees of freedom as
           vibrations may cause significant error
 Vibrational temperatures:     65.77    97.84   145.59   197.74   227.26
          (Kelvin)            282.29   299.83   337.63   414.15   440.98
                              499.61   536.88   547.65   569.56   630.21
                              687.19   690.17   738.65   753.99   780.00
                              817.92   850.88   854.62   870.74   927.48
                              967.49   994.72  1029.68  1077.45  1090.87
                             1115.49  1148.81  1165.28  1204.18  1296.22
                             1304.41  1304.80  1382.31  1397.16  1478.48
                             1526.45  1542.04  1631.90  1652.08  1664.55
                             1697.37  1744.94  1764.92  1805.45  1851.99
                             1903.58  1910.28  1967.25  2016.54  2049.26
                             2085.57  2112.68  2161.31  2174.83  2194.67
                             2245.23  2267.38  2323.84  2384.54  4012.82
                             4420.16  4431.24  4476.36  4491.24  4572.74
                             4576.48  5449.32

 Zero-point correction=                           0.181032 (Hartree/Particle)
 Thermal correction to Energy=                    0.194911
 Thermal correction to Enthalpy=                  0.195855
 Thermal correction to Gibbs Free Energy=         0.140573
 Sum of electronic and zero-point Energies=           -839.261086
 Sum of electronic and thermal Energies=              -839.247207
 Sum of electronic and thermal Enthalpies=            -839.246263
 Sum of electronic and thermal Free Energies=         -839.301546

                     E (Thermal)             CV                S
                      KCal/Mol        Cal/Mol-Kelvin    Cal/Mol-Kelvin
 Total                  122.309             55.987            116.352
 Electronic               0.000              0.000              0.000
 Translational            0.889              2.981             42.328
 Rotational               0.889              2.981             32.834
 Vibrational            120.531             50.025             41.190
 Vibration     1          0.595              1.979              4.995
 Vibration     2          0.598              1.969              4.210
 Vibration     3          0.604              1.948              3.431
 Vibration     4          0.614              1.916              2.839
 Vibration     5          0.621              1.894              2.574
 Vibration     6          0.636              1.845              2.168
 Vibration     7          0.642              1.828              2.058
 Vibration     8          0.654              1.788              1.843
 Vibration     9          0.685              1.696              1.487
 Vibration    10          0.697              1.661              1.381
 Vibration    11          0.725              1.581              1.179
 Vibration    12          0.745              1.527              1.067
 Vibration    13          0.750              1.511              1.037
 Vibration    14          0.763              1.479              0.978
 Vibration    15          0.798              1.387              0.833
 Vibration    16          0.834              1.300              0.717
 Vibration    17          0.836              1.295              0.711
 Vibration    18          0.868              1.220              0.625
 Vibration    19          0.879              1.197              0.601
 Vibration    20          0.897              1.157              0.561
 Vibration    21          0.924              1.099              0.507
 Vibration    22          0.949              1.050              0.465
 Vibration    23          0.952              1.045              0.460
 Vibration    24          0.964              1.021              0.441

 Optimization completed.
    -- Stationary point found.
 Normal termination of Gaussian 16 at Fri Dec 22 10:15:19 2023.
