 Q-Chem 5.4, Q-Chem, Inc., Pleasanton, CA (2021)
 Q-Chem 5.4.0 for Intel X86 EM64T Linux

User input:
--------------------------------------------------------------
$molecule
0 1
O                 -2.2273630000     -2.0396930000      0.2040590000
C                 -1.6508020000     -0.8383400000      0.0995620000
C                 -2.4956560000      0.2961980000      0.0305500000
C                 -1.9700210000      1.5587960000     -0.0774920000
C                 -0.5689460000      1.7603920000     -0.1227990000
O                 -0.1226550000      3.0158320000     -0.2285220000
C                  0.2868640000      0.6504760000     -0.0559700000
C                  1.7336750000      0.8445570000     -0.1017420000
O                  2.2466250000      1.9716410000     -0.1988980000
C                  2.5923560000     -0.3521660000     -0.0284920000
C                  2.0780160000     -1.5877770000      0.0772240000
C                  0.6230440000     -1.8234390000      0.1264960000
O                  0.1846660000     -2.9814900000      0.2245460000
C                 -0.2594490000     -0.6618400000      0.0563310000
H                 -1.5011520000     -2.7104970000      0.2401320000
H                 -3.5664890000      0.1359620000      0.0656540000
H                 -2.6113770000      2.4302490000     -0.1306560000
H                  0.8655980000      2.9741990000     -0.2463300000
H                  3.6607120000     -0.1704080000     -0.0652950000
H                  2.7023510000     -2.4726510000      0.1316440000
$end

$rem
BASIS  =  6-311++G(d,p)
GUI  =  2
JOB_TYPE  =  SP
METHOD  =  B3LYP
SCF_CONVERGENCE  = 8
SOLVENT_METHOD = sm12
$end

$smx
solvent dimethylformamide
charges CM5
$end

--------------------------------------------------------------

             Standard Nuclear Orientation (Angstroms)
    I     Atom           X                Y                Z
 ----------------------------------------------------------------
    1      O      -2.2273630000    -2.0396930000     0.2040590000
    2      C      -1.6508020000    -0.8383400000     0.0995620000
    3      C      -2.4956560000     0.2961980000     0.0305500000
    4      C      -1.9700210000     1.5587960000    -0.0774920000
    5      C      -0.5689460000     1.7603920000    -0.1227990000
    6      O      -0.1226550000     3.0158320000    -0.2285220000
    7      C       0.2868640000     0.6504760000    -0.0559700000
    8      C       1.7336750000     0.8445570000    -0.1017420000
    9      O       2.2466250000     1.9716410000    -0.1988980000
   10      C       2.5923560000    -0.3521660000    -0.0284920000
   11      C       2.0780160000    -1.5877770000     0.0772240000
   12      C       0.6230440000    -1.8234390000     0.1264960000
   13      O       0.1846660000    -2.9814900000     0.2245460000
   14      C      -0.2594490000    -0.6618400000     0.0563310000
   15      H      -1.5011520000    -2.7104970000     0.2401320000
   16      H      -3.5664890000     0.1359620000     0.0656540000
   17      H      -2.6113770000     2.4302490000    -0.1306560000
   18      H       0.8655980000     2.9741990000    -0.2463300000
   19      H       3.6607120000    -0.1704080000    -0.0652950000
   20      H       2.7023510000    -2.4726510000     0.1316440000
 ----------------------------------------------------------------

   15    -685.7749646156      3.07e-09  Convergence criterion met
 Total energy in the final basis set =     -685.7968256875

                    Orbital Energies (a.u.)
 --------------------------------------------------------------

 Alpha MOs
 -- Occupied --
-19.1689 -19.1689 -19.1415 -19.1415 -10.2884 -10.2884 -10.2725 -10.2725
-10.2141 -10.2132 -10.2119 -10.2115 -10.2084 -10.2077  -1.0970  -1.0954
 -1.0633  -1.0618  -0.8929  -0.8463  -0.7897  -0.7723  -0.7122  -0.6710
 -0.6591  -0.6271  -0.5609  -0.5504  -0.5485  -0.5391  -0.5061  -0.4773
 -0.4729  -0.4687  -0.4443  -0.4414  -0.4403  -0.4386  -0.4248  -0.4159
 -0.4065  -0.3918  -0.3874  -0.3383  -0.3113  -0.2989  -0.2917  -0.2845
 -0.2387

          Ground-State Mulliken Net Atomic Charges

     Atom                 Charge (a.u.)
  ----------------------------------------
      1 O                    -0.328110
      2 C                    -0.881781
      3 C                     0.595447
      4 C                     0.594713
      5 C                    -0.879402
      6 O                    -0.328093
      7 C                     0.126957
      8 C                    -0.831250
      9 O                    -0.391628
     10 C                     0.758186
     11 C                     0.758120
     12 C                    -0.827633
     13 O                    -0.392124
     14 C                     0.126207
     15 H                     0.298254
     16 H                     0.306974
     17 H                     0.306917
     18 H                     0.298093
     19 H                     0.345073
     20 H                     0.345081
  ----------------------------------------
  Sum of atomic charges =     0.000000

                    Cartesian Multipole Moments
 -----------------------------------------------------------------
    Charge (ESU x 10^10)
                 0.0000
    Dipole Moment (Debye)
         X       0.3575      Y      -0.1484      Z       0.0037
       Tot       0.3871
    Quadrupole Moments (Debye-Ang)
        XX     -71.0759     XY     -11.0958     YY     -93.1441
        XZ       0.6391     YZ       1.1877     ZZ     -80.8394

 Total job time:  276.45s(wall), 2058.15s(cpu)
        *  Thank you very much for using Q-Chem.  Have a nice day.  *
