 Gaussian 16, Revision A.03,
 Gaussian 16:  ES64L-G16RevA.03 25-Dec-2016

 ----------------------------------------------------------------
 #P UB3LYP/6-311++G(d,p) SCRF=(PCM,Solvent=n,n-DiMethylFormamide)
 ----------------------------------------------------------------

 -------
 Reduced
 -------
 Symbolic Z-matrix:
 Charge = -1 Multiplicity = 2

                         Standard orientation:
 ---------------------------------------------------------------------
 Center     Atomic      Atomic             Coordinates (Angstroms)
 Number     Number       Type             X           Y           Z
 ---------------------------------------------------------------------
      1          6           0       -3.762261   -2.371305    0.000138
      2          6           0       -5.081953   -1.971754    0.000581
      3          6           0       -5.407017   -0.599597    0.000739
      4          6           0       -2.719402   -1.414017   -0.000141
      5          6           0       -3.045264   -0.035819   -0.000010
      6          6           0       -4.400247    0.347021    0.000443
      7          6           0       -1.345830   -1.844881   -0.000477
      8          6           0       -2.015363    1.019887   -0.000298
      9          6           0       -0.303356   -0.831259   -0.000444
     10          6           0       -0.602677    0.579875   -0.000313
     11          6           0        1.054296   -1.222989   -0.000416
     12          6           0        2.095436   -0.325232   -0.000132
     13          6           0        1.816477    1.042487   -0.000057
     14          6           0        0.498778    1.473055   -0.000171
     15          8           0       -1.058728   -3.105990   -0.000694
     16          8           0       -2.351979    2.212473   -0.000472
     17          1           0       -3.488850   -3.418933    0.000058
     18          1           0       -5.873149   -2.714763    0.000843
     19          1           0       -6.446547   -0.288662    0.001114
     20          1           0       -4.620581    1.407506    0.000561
     21         35           0        0.318910    3.392599   -0.000025
     22          7           0        1.374032   -2.657832   -0.000501
     23         16           0        3.796127   -0.994127    0.000343
     24          8           0        3.807792   -1.833165    1.235926
     25          8           0        3.808978   -1.832294   -1.235794
     26          8           0        4.702277    0.161869    0.001170
     27          1           0        2.637645    1.745854    0.000103
     28          1           0        0.367417   -3.141191   -0.000601
     29          1           0        1.974713   -2.857981    0.811463
     30          1           0        1.974825   -2.857914   -0.812382
 ---------------------------------------------------------------------

 SCF Done:  E(UB3LYP) =  -3941.92403376     A.U. after   21 cycles

 The electronic state is 2-A.
 Alpha  occ. eigenvalues -- -482.83273 -89.06432 -62.48549 -56.30595 -56.30212
 Alpha  occ. eigenvalues --  -56.30162 -19.11291 -19.11042 -19.10615 -19.10615
 Alpha  occ. eigenvalues --  -19.09696 -14.39522 -10.25286 -10.25259 -10.25196
 Alpha  occ. eigenvalues --  -10.24949 -10.21919 -10.21447 -10.21340 -10.20351
 Alpha  occ. eigenvalues --  -10.19076 -10.18915 -10.18433 -10.18362 -10.18232
 Alpha  occ. eigenvalues --  -10.18121  -8.69518  -8.12311  -6.52683  -6.51413
 Alpha  occ. eigenvalues --   -6.51267  -6.08580  -6.08558  -6.08508  -2.63772
 Alpha  occ. eigenvalues --   -2.63438  -2.63327  -2.62315  -2.62313  -1.12949
 Alpha  occ. eigenvalues --   -1.03814  -1.03204  -1.00124  -0.98619  -0.97865
 Alpha  occ. eigenvalues --   -0.89417  -0.87114  -0.82117  -0.81128  -0.76740
 Alpha  occ. eigenvalues --   -0.76492  -0.74517  -0.69826  -0.67323  -0.65210
 Alpha  occ. eigenvalues --   -0.61839  -0.59822  -0.58486  -0.57816  -0.55545
 Alpha  occ. eigenvalues --   -0.54208  -0.53212  -0.51002  -0.50307  -0.49848
 Alpha  occ. eigenvalues --   -0.47114  -0.46981  -0.46595  -0.46104  -0.44551
 Alpha  occ. eigenvalues --   -0.44195  -0.43616  -0.43173  -0.42868  -0.41488
 Alpha  occ. eigenvalues --   -0.40643  -0.39618  -0.38735  -0.37007  -0.36281
 Alpha  occ. eigenvalues --   -0.35298  -0.35142  -0.35096  -0.33408  -0.31969
 Alpha  occ. eigenvalues --   -0.31747  -0.30939  -0.30168  -0.28789  -0.27977
 Alpha  occ. eigenvalues --   -0.27482  -0.26925  -0.26806  -0.26485  -0.24738
 Alpha  occ. eigenvalues --   -0.16704
 Alpha virt. eigenvalues --   -0.07961  -0.04525  -0.02604  -0.02218  -0.00767
 Alpha virt. eigenvalues --    0.00199   0.00882   0.01943   0.02130   0.02629
 Alpha virt. eigenvalues --    0.03309   0.03522   0.03904   0.04104   0.04457

  Beta  occ. eigenvalues -- -482.83273 -89.06432 -62.48549 -56.30594 -56.30211
  Beta  occ. eigenvalues --  -56.30162 -19.11293 -19.10613 -19.10612 -19.10516
  Beta  occ. eigenvalues --  -19.09184 -14.39530 -10.25310 -10.25219 -10.24874
  Beta  occ. eigenvalues --  -10.24855 -10.21918 -10.21407 -10.21185 -10.20213
  Beta  occ. eigenvalues --  -10.19097 -10.18812 -10.18445 -10.18281 -10.18166
  Beta  occ. eigenvalues --  -10.18151  -8.69518  -8.12311  -6.52682  -6.51412
  Beta  occ. eigenvalues --   -6.51267  -6.08580  -6.08558  -6.08508  -2.63771
  Beta  occ. eigenvalues --   -2.63437  -2.63327  -2.62315  -2.62313  -1.12947
  Beta  occ. eigenvalues --   -1.02968  -1.02330  -1.00092  -0.98614  -0.97706
  Beta  occ. eigenvalues --   -0.89207  -0.86956  -0.81911  -0.80884  -0.76561
  Beta  occ. eigenvalues --   -0.76267  -0.74307  -0.69271  -0.66967  -0.64980
  Beta  occ. eigenvalues --   -0.61726  -0.59797  -0.58318  -0.57610  -0.55467
  Beta  occ. eigenvalues --   -0.54072  -0.53076  -0.50851  -0.50152  -0.49636
  Beta  occ. eigenvalues --   -0.47080  -0.46897  -0.46566  -0.45980  -0.44078
  Beta  occ. eigenvalues --   -0.43529  -0.43314  -0.42754  -0.42670  -0.41250
  Beta  occ. eigenvalues --   -0.39313  -0.38658  -0.38176  -0.36890  -0.35380
  Beta  occ. eigenvalues --   -0.35275  -0.35066  -0.35036  -0.33193  -0.31964
  Beta  occ. eigenvalues --   -0.31192  -0.30887  -0.30060  -0.27586  -0.27506
  Beta  occ. eigenvalues --   -0.27170  -0.26310  -0.26137  -0.25927  -0.24344
  Beta virt. eigenvalues --   -0.10746  -0.06982  -0.03485  -0.02248  -0.02238
  Beta virt. eigenvalues --   -0.00745   0.00204   0.00898   0.01961   0.02139
  Beta virt. eigenvalues --    0.03339   0.03399   0.03537   0.04114   0.04467

 Mulliken charges and spin densities:
               1          2
     1  C   -0.002841   0.080099
     2  C   -0.525551  -0.017728
     3  C   -0.471880   0.069645
     4  C    0.114949  -0.051279
     5  C    0.130940   0.058377
     6  C    0.046102  -0.006437
     7  C   -0.383430   0.203328
     8  C   -0.774525   0.023558
     9  C    0.419691   0.026592
    10  C    0.795489   0.114012
    11  C   -0.246378   0.056933
    12  C   -0.490531  -0.008827
    13  C   -0.236954   0.109328
    14  C    0.285576  -0.023466
    15  O   -0.442716   0.192986
    16  O   -0.301348   0.189254
    17  H    0.172806  -0.003851
    18  H    0.193523   0.000324
    19  H    0.193111  -0.004922
    20  H    0.178843   0.000257
    21  Br  -0.152044   0.000998
    22  N   -0.454465  -0.002591
    23  S    0.390802  -0.002324
    24  O   -0.407343   0.001886
    25  O   -0.407150   0.001883
    26  O   -0.148171  -0.000706
    27  H    0.285500  -0.007503
    28  H    0.478017  -0.003421
    29  H    0.380013   0.001797
    30  H    0.379966   0.001796
 Sum of Mulliken charges =  -1.00000   1.00000

 Dipole moment (field-independent basis, Debye):
    X=            -10.8448    Y=             -1.9237    Z=             -0.0009  Tot=             11.0141
 Quadrupole moment (field-independent basis, Debye-Ang):
   XX=           -220.2038   YY=           -166.8500   ZZ=           -157.4383
   XY=             17.1821   XZ=             -0.0164   YZ=              0.0039

 Normal termination of Gaussian 16 at Wed Jan 17 10:28:16 2024.
