 Gaussian 16, Revision A.03,
 Gaussian 16:  ES64L-G16RevA.03 25-Dec-2016

 --------------------------------------
 #P UB3LYP/6-311++G(d,p) nosym opt freq
 --------------------------------------

 -------
 Radical
 -------
 Symbolic Z-matrix:
 Charge = -1 Multiplicity = 2

 SCF Done:  E(UB3LYP) =  -3941.83831813     A.U. after   22 cycles
 SCF Done:  E(UB3LYP) =  -3941.84250822     A.U. after   19 cycles
 SCF Done:  E(UB3LYP) =  -3941.84439987     A.U. after   19 cycles
 SCF Done:  E(UB3LYP) =  -3941.84766959     A.U. after   17 cycles
 SCF Done:  E(UB3LYP) =  -3941.84799613     A.U. after   17 cycles
 SCF Done:  E(UB3LYP) =  -3941.84787815     A.U. after   16 cycles
 SCF Done:  E(UB3LYP) =  -3941.84804809     A.U. after   16 cycles
 SCF Done:  E(UB3LYP) =  -3941.84813959     A.U. after   15 cycles
 SCF Done:  E(UB3LYP) =  -3941.84820259     A.U. after   15 cycles
 SCF Done:  E(UB3LYP) =  -3941.84819734     A.U. after   15 cycles
 SCF Done:  E(UB3LYP) =  -3941.84810516     A.U. after   17 cycles
 SCF Done:  E(UB3LYP) =  -3941.84821288     A.U. after   16 cycles
 SCF Done:  E(UB3LYP) =  -3941.84821905     A.U. after   14 cycles
 SCF Done:  E(UB3LYP) =  -3941.84822014     A.U. after   12 cycles
 SCF Done:  E(UB3LYP) =  -3941.84822013     A.U. after   11 cycles
 SCF Done:  E(UB3LYP) =  -3941.84822026     A.U. after   10 cycles
 SCF Done:  E(UB3LYP) =  -3941.84822046     A.U. after   13 cycles
 SCF Done:  E(UB3LYP) =  -3941.84822050     A.U. after   11 cycles
 SCF Done:  E(UB3LYP) =  -3941.84822052     A.U. after   10 cycles
 Optimization completed.
    -- Stationary point found.
 Normal termination of Gaussian 16 at Thu Jan  4 23:21:55 2024.

 ----------------------------------------------------------------------
 #P Geom=AllCheck Guess=TCheck SCRF=Check GenChk UB3LYP/6-311++G(d,p) F
 req
 ----------------------------------------------------------------------

 Structure from the checkpoint file:  "163-rad-new.chk"
 -------
 Radical
 -------
 Charge = -1 Multiplicity = 2

                          Input orientation:
 ---------------------------------------------------------------------
 Center     Atomic      Atomic             Coordinates (Angstroms)
 Number     Number       Type             X           Y           Z
 ---------------------------------------------------------------------
      1          6           0       -1.841786    2.035930   -5.121530
      2          6           0       -1.806318    0.715827   -5.518138
      3          6           0       -1.430423   -0.289217   -4.603222
      4          6           0       -1.502841    2.399619   -3.796086
      5          6           0       -1.125280    1.390678   -2.876791
      6          6           0       -1.096761    0.049896   -3.305785
      7          6           0       -1.543962    3.781639   -3.395244
      8          6           0       -0.758765    1.690965   -1.480115
      9          6           0       -1.188506    4.114969   -2.025308
     10          6           0       -0.799840    3.110709   -1.065468
     11          6           0       -1.218966    5.462787   -1.602070
     12          6           0       -0.896745    5.856871   -0.325037
     13          6           0       -0.519410    4.892857    0.611322
     14          6           0       -0.475413    3.557809    0.240603
     15          8           0       -1.890211    4.695563   -4.242403
     16          8           0       -0.435644    0.772045   -0.714118
     17          1           0       -2.127207    2.824435   -5.806418
     18          1           0       -2.068243    0.448841   -6.537043
     19          1           0       -1.403553   -1.327043   -4.918656
     20          1           0       -0.804375   -0.700950   -2.581964
     21         35           0        0.067049    2.382367    1.669264
     22          7           0       -1.613181    6.496830   -2.569724
     23         16           0       -0.985836    7.640401    0.063363
     24          8           0       -0.046180    8.231113   -0.936082
     25          8           0       -2.407930    7.965433   -0.257149
     26          8           0       -0.596863    7.783481    1.472498
     27          1           0       -0.266687    5.206187    1.614815
     28          1           0       -1.813694    5.910531   -3.498679
     29          1           0       -0.858458    7.194932   -2.626386
     30          1           0       -2.410242    7.020097   -2.181110
 ---------------------------------------------------------------------

 SCF Done:  E(UB3LYP) =  -3941.84822052     A.U. after    1 cycles

 Alpha  occ. eigenvalues -- -482.73138 -88.94242 -62.38415 -56.20460 -56.20079
 Alpha  occ. eigenvalues --  -56.20027 -19.01302 -18.99630 -18.98673 -18.98405
 Alpha  occ. eigenvalues --  -18.98404 -14.30287 -10.15361 -10.15305 -10.15251
 Alpha  occ. eigenvalues --  -10.14847 -10.11649 -10.11434 -10.11416 -10.10096
 Alpha  occ. eigenvalues --  -10.09862 -10.09729 -10.09704 -10.09517 -10.09310
 Alpha  occ. eigenvalues --  -10.09145  -8.59383  -8.00102  -6.42551  -6.41280
 Alpha  occ. eigenvalues --   -6.41127  -5.96353  -5.96340  -5.96332  -2.53640
 Alpha  occ. eigenvalues --   -2.53307  -2.53190  -2.52177  -2.52175  -1.00584
 Alpha  occ. eigenvalues --   -0.94142  -0.93037  -0.88963  -0.87067  -0.86315
 Alpha  occ. eigenvalues --   -0.79470  -0.77890  -0.72344  -0.71038  -0.67468
 Alpha  occ. eigenvalues --   -0.67224  -0.64594  -0.59788  -0.57566  -0.55724
 Alpha  occ. eigenvalues --   -0.51744  -0.49755  -0.48867  -0.48354  -0.46440
 Alpha  occ. eigenvalues --   -0.44221  -0.43587  -0.40634  -0.40410  -0.39513
 Alpha  occ. eigenvalues --   -0.37753  -0.36632  -0.35221  -0.34967  -0.34583
 Alpha  occ. eigenvalues --   -0.34355  -0.33769  -0.33190  -0.33009  -0.31503
 Alpha  occ. eigenvalues --   -0.30710  -0.29695  -0.28746  -0.28094  -0.26795
 Alpha  occ. eigenvalues --   -0.26155  -0.23116  -0.22881  -0.22249  -0.20709
 Alpha  occ. eigenvalues --   -0.20192  -0.19478  -0.19064  -0.18500  -0.17853
 Alpha  occ. eigenvalues --   -0.17729  -0.16988  -0.16518  -0.14803  -0.14568
 Alpha  occ. eigenvalues --   -0.06942
 Alpha virt. eigenvalues --    0.01861   0.05116   0.06190   0.06775   0.07269
 Alpha virt. eigenvalues --    0.07816   0.08392   0.09916   0.10366   0.11803
 Alpha virt. eigenvalues --    0.11871   0.12092   0.12196   0.13033   0.13533

  Beta  occ. eigenvalues -- -482.73138 -88.94242 -62.38415 -56.20460 -56.20078
  Beta  occ. eigenvalues --  -56.20027 -19.00757 -18.99100 -18.98675 -18.98405
  Beta  occ. eigenvalues --  -18.98404 -14.30296 -10.15310 -10.15276 -10.14997
  Beta  occ. eigenvalues --  -10.14746 -10.11638 -10.11457 -10.11267 -10.09960
  Beta  occ. eigenvalues --  -10.09885 -10.09746 -10.09594 -10.09383 -10.09240
  Beta  occ. eigenvalues --  -10.09197  -8.59383  -8.00101  -6.42550  -6.41280
  Beta  occ. eigenvalues --   -6.41127  -5.96353  -5.96339  -5.96332  -2.53639
  Beta  occ. eigenvalues --   -2.53307  -2.53190  -2.52177  -2.52175  -1.00584
  Beta  occ. eigenvalues --   -0.93279  -0.92146  -0.88774  -0.87042  -0.86314
  Beta  occ. eigenvalues --   -0.79254  -0.77746  -0.72086  -0.70850  -0.67262
  Beta  occ. eigenvalues --   -0.67043  -0.64368  -0.59179  -0.57261  -0.55507
  Beta  occ. eigenvalues --   -0.51636  -0.49714  -0.48715  -0.48152  -0.46351
  Beta  occ. eigenvalues --   -0.44103  -0.43426  -0.40397  -0.40214  -0.39444
  Beta  occ. eigenvalues --   -0.37672  -0.36515  -0.34881  -0.34854  -0.34535
  Beta  occ. eigenvalues --   -0.33744  -0.33415  -0.32879  -0.32635  -0.31273
  Beta  occ. eigenvalues --   -0.29509  -0.28692  -0.28232  -0.27961  -0.26035
  Beta  occ. eigenvalues --   -0.25737  -0.22881  -0.22865  -0.22197  -0.20075
  Beta  occ. eigenvalues --   -0.19912  -0.19456  -0.18926  -0.17581  -0.17269
  Beta  occ. eigenvalues --   -0.16916  -0.16503  -0.15935  -0.14767  -0.14161
  Beta virt. eigenvalues --   -0.00889   0.02795   0.06114   0.06188   0.07079
  Beta virt. eigenvalues --    0.07244   0.07833   0.08391   0.09927   0.10369
  Beta virt. eigenvalues --    0.11812   0.11923   0.12212   0.12752   0.13291

 Mulliken charges and spin densities:
               1          2
     1  C   -0.013533   0.085193
     2  C   -0.479628  -0.022414
     3  C   -0.424338   0.086846
     4  C    0.190363  -0.048865
     5  C    0.206123   0.086682
     6  C    0.037383  -0.023655
     7  C   -0.463242   0.216562
     8  C   -0.881562  -0.005085
     9  C    0.401228   0.006266
    10  C    0.767664   0.109084
    11  C   -0.276489   0.075085
    12  C   -0.444207  -0.024439
    13  C   -0.260094   0.108583
    14  C    0.308791  -0.029137
    15  O   -0.402262   0.200358
    16  O   -0.218721   0.196897
    17  H    0.158981  -0.004090
    18  H    0.141224   0.000654
    19  H    0.141524  -0.006303
    20  H    0.175599   0.001110
    21  Br  -0.179865   0.000522
    22  N   -0.475332  -0.004003
    23  S    0.335959  -0.000363
    24  O   -0.359913   0.000851
    25  O   -0.359701   0.000847
    26  O   -0.079820  -0.000904
    27  H    0.286213  -0.007337
    28  H    0.455393  -0.003625
    29  H    0.356164   0.002341
    30  H    0.356097   0.002340
 Sum of Mulliken charges =  -1.00000   1.00000

 Dipole moment (field-independent basis, Debye):
    X=              3.8536    Y=            -25.2822    Z=              1.1051  Tot=             25.5981
 Quadrupole moment (field-independent basis, Debye-Ang):
   XX=           -161.1291   YY=           -343.1093   ZZ=           -169.8291
   XY=             22.0933   XZ=             -2.7951   YZ=             -8.5581

  Exact polarizability: 142.779  -8.732 341.451  48.925  53.585 319.381
 Approx polarizability: 243.138 -29.093 532.764  84.613  23.327 519.725

                      1                      2                      3
                      A                      A                      A
 Frequencies --     26.6559                35.7463                46.7098
 Red. masses --     11.2312                 8.7077                10.5147
 Frc consts  --      0.0047                 0.0066                 0.0135
 IR Inten    --      1.3195                 1.0235                 1.2294

                      4                      5                      6
                      A                      A                      A
 Frequencies --     92.5174               123.4802               124.4606
 Red. masses --     10.0753                15.2616                 4.4606
 Frc consts  --      0.0508                 0.1371                 0.0407
 IR Inten    --      8.3071                 5.1773                 0.4261

                      7                      8                      9
                      A                      A                      A
 Frequencies --    137.3559               155.1944               173.8727
 Red. masses --     12.0916                 5.2842                 7.3341
 Frc consts  --      0.1344                 0.0750                 0.1306
 IR Inten    --      0.1044                 7.4724                 3.3071

                     10                     11                     12
                      A                      A                      A
 Frequencies --    212.3507               236.5067               237.9259
 Red. masses --      9.6314                 9.4641                 7.1404
 Frc consts  --      0.2559                 0.3119                 0.2382
 IR Inten    --     33.8044                 0.2996                29.4535

                     13                     14                     15
                      A                      A                      A
 Frequencies --    241.7032               276.5904               310.3063
 Red. masses --     13.8336                 4.6850                 4.7868
 Frc consts  --      0.4762                 0.2112                 0.2716
 IR Inten    --     21.0544                 1.9213                97.7997

                     16                     17                     18
                      A                      A                      A
 Frequencies --    334.0969               371.6809               393.6395
 Red. masses --      5.6021                 7.8788                 7.7624
 Frc consts  --      0.3684                 0.6413                 0.7087
 IR Inten    --     86.1557                 0.3299                56.9558

                     19                     20                     21
                      A                      A                      A
 Frequencies --    410.1090               419.2385               434.3747
 Red. masses --      1.8924                 9.3101                 1.7452
 Frc consts  --      0.1875                 0.9641                 0.1940
 IR Inten    --      3.8332                11.7275                 7.2813

                     22                     23                     24
                      A                      A                      A
 Frequencies --    442.8959               443.1376               482.2675
 Red. masses --      4.0987                 8.7249                10.2534
 Frc consts  --      0.4737                 1.0095                 1.4051
 IR Inten    --      0.4169               111.8695                 4.3341

                     25                     26                     27
                      A                      A                      A
 Frequencies --    486.7545               516.1330               528.0339
 Red. masses --      7.3270                10.4868                 5.3215
 Frc consts  --      1.0228                 1.6459                 0.8742
 IR Inten    --      5.8200                14.5809                20.0299

                     28                     29                     30
                      A                      A                      A
 Frequencies --    529.4237               583.3076               605.6895
 Red. masses --      9.7498                 7.7309                14.8239
 Frc consts  --      1.6101                 1.5498                 3.2041
 IR Inten    --      2.6068                 0.0569               263.4777

                     31                     32                     33
                      A                      A                      A
 Frequencies --    623.6817               635.5219               667.8623
 Red. masses --      6.4755                 5.7678                 6.2318
 Frc consts  --      1.4841                 1.3725                 1.6377
 IR Inten    --      2.5529                 0.9662                41.5940

                     34                     35                     36
                      A                      A                      A
 Frequencies --    700.5333               716.9669               720.8564
 Red. masses --      5.0092                 3.3888                 9.5395
 Frc consts  --      1.4484                 1.0263                 2.9206
 IR Inten    --     17.2880                21.7211                92.2868

                     37                     38                     39
                      A                      A                      A
 Frequencies --    721.8281               780.2088               800.7423
 Red. masses --      7.9160                 1.9792                 3.8237
 Frc consts  --      2.4301                 0.7098                 1.4445
 IR Inten    --      3.5340                28.0617                 3.1257

                     40                     41                     42
                      A                      A                      A
 Frequencies --    813.4350               881.4434               886.7160
 Red. masses --      7.5870                 1.4613                 1.3000
 Frc consts  --      2.9578                 0.6689                 0.6022
 IR Inten    --     27.0852                 0.2437                 9.3443

                     43                     44                     45
                      A                      A                      A
 Frequencies --    889.1760               952.7987               988.0833
 Red. masses --      7.9674                10.4465                 1.3477
 Frc consts  --      3.7114                 5.5876                 0.7752
 IR Inten    --     10.5884                86.1498                 1.5847

                     46                     47                     48
                      A                      A                      A
 Frequencies --    989.4731               995.0142              1001.2278
 Red. masses --      8.6802                 1.2969                 6.2723
 Frc consts  --      5.0071                 0.7565                 3.7046
 IR Inten    --    263.6875                 0.4067                 3.8142

                     49                     50                     51
                      A                      A                      A
 Frequencies --   1046.7857              1111.6931              1117.4566
 Red. masses --      1.9815                 2.5700                10.3092
 Frc consts  --      1.2793                 1.8713                 7.5847
 IR Inten    --      8.3804                57.4445               252.1280

                     52                     53                     54
                      A                      A                      A
 Frequencies --   1134.7375              1156.7474              1168.5384
 Red. masses --      2.8981                 1.3686                 1.8094
 Frc consts  --      2.1986                 1.0790                 1.4557
 IR Inten    --    160.6837                11.8728               171.0196

                     55                     56                     57
                      A                      A                      A
 Frequencies --   1187.7305              1196.3767              1216.5669
 Red. masses --      2.7567                 1.3157                 2.8657
 Frc consts  --      2.2913                 1.1095                 2.4990
 IR Inten    --     10.7989                36.9669               128.8741

                     58                     59                     60
                      A                      A                      A
 Frequencies --   1231.6895              1240.9312              1248.9753
 Red. masses --      4.0730                 2.6427                 2.2903
 Frc consts  --      3.6405                 2.3977                 2.1050
 IR Inten    --     62.5692               112.3342               549.7246

                     61                     62                     63
                      A                      A                      A
 Frequencies --   1254.8862              1304.1285              1355.7240
 Red. masses --      1.6447                 7.7253                 2.8138
 Frc consts  --      1.5260                 7.7411                 3.0471
 IR Inten    --      2.9869                19.6550               223.7148

                     64                     65                     66
                      A                      A                      A
 Frequencies --   1361.8785              1366.8564              1422.1329
 Red. masses --      5.2219                 9.2190                 3.4821
 Frc consts  --      5.7063                10.1480                 4.1493
 IR Inten    --     66.6069                10.2258                 6.6236

                     67                     68                     69
                      A                      A                      A
 Frequencies --   1478.7149              1483.3921              1521.0921
 Red. masses --      2.4380                 3.1705                 4.0770
 Frc consts  --      3.1408                 4.1105                 5.5578
 IR Inten    --     16.3248                20.4337               156.6007

                     70                     71                     72
                      A                      A                      A
 Frequencies --   1554.2269              1580.7541              1589.2520
 Red. masses --      6.3246                 6.9525                 6.5417
 Frc consts  --      9.0014                10.2358                 9.7348
 IR Inten    --     15.0016               299.6745                17.7018

                     73                     74                     75
                      A                      A                      A
 Frequencies --   1603.7526              1612.6857              1642.2105
 Red. masses --      1.0380                 5.1665                 3.1416
 Frc consts  --      1.5729                 7.9167                 4.9918
 IR Inten    --     23.5449                20.6340                70.1125

                     76                     77                     78
                      A                      A                      A
 Frequencies --   1655.0547              2148.8631              3148.6862
 Red. masses --      1.4872                 1.1121                 1.0857
 Frc consts  --      2.4001                 3.0256                 6.3421
 IR Inten    --      5.6712               602.6766                13.8065

                     79                     80                     81
                      A                      A                      A
 Frequencies --   3166.4918              3194.6062              3198.6693
 Red. masses --      1.0917                 1.0920                 1.0928
 Frc consts  --      6.4492                 6.5663                 6.5874
 IR Inten    --     37.9897                 9.3368                16.6158

                     82                     83                     84
                      A                      A                      A
 Frequencies --   3215.2476              3335.3957              3353.7811
 Red. masses --      1.0910                 1.0508                 1.0925
 Frc consts  --      6.6453                 6.8877                 7.2400
 IR Inten    --     12.6680               217.3633                68.5962

 - Thermochemistry -
 -------------------
 Temperature   298.150 Kelvin.  Pressure   1.00000 Atm.
 Atom     1 has atomic number  6 and mass  12.00000

 Molecular mass:   380.93066 amu.
 Principal axes and moments of inertia in atomic units:
                           1         2         3
     Eigenvalues --  6225.71352********************
           X            0.05910   0.28855   0.95564
           Y            0.84171  -0.52909   0.10770
           Z            0.53669   0.79800  -0.27414
 This molecule is an asymmetric top.
 Rotational symmetry number  1.
 Warning -- assumption of classical behavior for rotation
           may cause significant error
 Rotational temperatures (Kelvin)      0.01391     0.00797     0.00518
 Rotational constants (GHZ):           0.28989     0.16615     0.10788
 Zero-point vibrational energy     519086.2 (Joules/Mol)
                                  124.06459 (Kcal/Mol)
 Warning -- explicit consideration of  30 degrees of freedom as
           vibrations may cause significant error
 Vibrational temperatures:     38.35    51.43    67.20   133.11   177.66
          (Kelvin)            179.07   197.62   223.29   250.16   305.53
                              340.28   342.32   347.76   397.95   446.46
                              480.69   534.77   566.36   590.06   603.19
                              624.97   637.23   637.58   693.88   700.33
                              742.60   759.72   761.72   839.25   871.45
                              897.34   914.37   960.90  1007.91  1031.56
                             1037.15  1038.55  1122.55  1152.09  1170.35
                             1268.20  1275.79  1279.33  1370.86  1421.63
                             1423.63  1431.60  1440.54  1506.09  1599.48
                             1607.77  1632.63  1664.30  1681.27  1708.88
                             1721.32  1750.37  1772.13  1785.42  1797.00
                             1805.50  1876.35  1950.58  1959.44  1966.60
                             2046.13  2127.54  2134.27  2188.51  2236.19
                             2274.35  2286.58  2307.44  2320.30  2362.77
                             2381.25  3091.73  4530.26  4555.88  4596.33
                             4602.17  4626.02  4798.89  4825.34

 Zero-point correction=                           0.197710 (Hartree/Particle)
 Thermal correction to Energy=                    0.215702
 Thermal correction to Enthalpy=                  0.216647
 Thermal correction to Gibbs Free Energy=         0.149535
 Sum of electronic and zero-point Energies=          -3941.650511
 Sum of electronic and thermal Energies=             -3941.632518
 Sum of electronic and thermal Enthalpies=           -3941.631574
 Sum of electronic and thermal Free Energies=        -3941.698686

                     E (Thermal)             CV                S
                      KCal/Mol        Cal/Mol-Kelvin    Cal/Mol-Kelvin
 Total                  135.355             69.468            141.249
 Electronic               0.000              0.000              1.377
 Translational            0.889              2.981             43.705
 Rotational               0.889              2.981             35.380
 Vibrational            133.578             63.506             60.787
 Vibration     1          0.593              1.984              6.064
 Vibration     2          0.594              1.982              5.482
 Vibration     3          0.595              1.979              4.952
 Vibration     4          0.602              1.955              3.606
 Vibration     5          0.610              1.929              3.045
 Vibration     6          0.610              1.929              3.030
 Vibration     7          0.614              1.916              2.840
 Vibration     8          0.620              1.897              2.608
 Vibration     9          0.627              1.875              2.393
 Vibration    10          0.643              1.822              2.023
 Vibration    11          0.655              1.785              1.829
 Vibration    12          0.656              1.783              1.818
 Vibration    13          0.658              1.776              1.790
 Vibration    14          0.678              1.717              1.555
 Vibration    15          0.699              1.654              1.361
 Vibration    16          0.716              1.607              1.240
 Vibration    17          0.743              1.530              1.073
 Vibration    18          0.761              1.484              0.986
 Vibration    19          0.774              1.448              0.926
 Vibration    20          0.782              1.428              0.895
 Vibration    21          0.795              1.395              0.844
 Vibration    22          0.803              1.377              0.818
 Vibration    23          0.803              1.376              0.817
 Vibration    24          0.839              1.289              0.704
 Vibration    25          0.843              1.279              0.692
 Vibration    26          0.871              1.214              0.619
 Vibration    27          0.883              1.188              0.592
 Vibration    28          0.884              1.185              0.588
 Vibration    29          0.940              1.067              0.479
 Vibration    30          0.964              1.020              0.440

 Optimization completed.
    -- Stationary point found.
 Normal termination of Gaussian 16 at Fri Jan  5 00:21:49 2024.
