 Gaussian 16, Revision A.03,
 Gaussian 16:  ES64L-G16RevA.03 25-Dec-2016

 --------------------------------------
 #P UB3LYP/6-311++G(d,p) nosym opt freq
 --------------------------------------

 --------
 Oxidized
 --------
 Symbolic Z-matrix:
 Charge = -2 Multiplicity = 1

 SCF Done:  E(UB3LYP) =  -1781.84952494     A.U. after   24 cycles
 SCF Done:  E(UB3LYP) =  -1781.90881328     A.U. after   16 cycles
 SCF Done:  E(UB3LYP) =  -1781.94729474     A.U. after   16 cycles
 SCF Done:  E(UB3LYP) =  -1781.94855208     A.U. after   14 cycles
 SCF Done:  E(UB3LYP) =  -1781.94864279     A.U. after   14 cycles
 SCF Done:  E(UB3LYP) =  -1781.94866224     A.U. after   14 cycles
 SCF Done:  E(UB3LYP) =  -1781.94866865     A.U. after   13 cycles
 SCF Done:  E(UB3LYP) =  -1781.94866991     A.U. after   12 cycles
 SCF Done:  E(UB3LYP) =  -1781.94867135     A.U. after   11 cycles
 SCF Done:  E(UB3LYP) =  -1781.94867256     A.U. after   13 cycles
 SCF Done:  E(UB3LYP) =  -1781.94867641     A.U. after   13 cycles
 SCF Done:  E(UB3LYP) =  -1781.94867802     A.U. after   13 cycles
 SCF Done:  E(UB3LYP) =  -1781.94867911     A.U. after   12 cycles
 SCF Done:  E(UB3LYP) =  -1781.94867933     A.U. after   12 cycles
 SCF Done:  E(UB3LYP) =  -1781.94867945     A.U. after   12 cycles
 SCF Done:  E(UB3LYP) =  -1781.94867960     A.U. after   11 cycles
 SCF Done:  E(UB3LYP) =  -1781.94867970     A.U. after   11 cycles
 SCF Done:  E(UB3LYP) =  -1781.94867978     A.U. after   11 cycles
 SCF Done:  E(UB3LYP) =  -1781.94867983     A.U. after   11 cycles
 Optimization completed.
    -- Stationary point found.
 Normal termination of Gaussian 16 at Sat Jan 27 01:59:57 2024.

 ----------------------------------------------------------------------
 #P Geom=AllCheck Guess=TCheck SCRF=Check GenChk UB3LYP/6-311++G(d,p) F
 req
 ----------------------------------------------------------------------

 Structure from the checkpoint file:  "327.chk"
 --------
 Oxidized
 --------
 Charge = -2 Multiplicity = 1

                          Input orientation:
 ---------------------------------------------------------------------
 Center     Atomic      Atomic             Coordinates (Angstroms)
 Number     Number       Type             X           Y           Z
 ---------------------------------------------------------------------
      1          6           0       -1.710502    2.927236   -0.831900
      2          6           0       -2.846177    2.198363   -0.512039
      3          6           0       -2.717111    0.892252   -0.042079
      4          6           0       -0.437652    2.367413   -0.690897
      5          6           0       -0.293221    1.033323   -0.221480
      6          6           0       -1.451779    0.307477    0.097889
      7          6           0        0.732081    3.195990   -1.047101
      8          6           0        2.137219    2.557549   -0.872705
      9          6           0        2.181529    1.189735   -0.395220
     10          6           0        1.071210    0.475202   -0.093442
     11          8           0        0.646135    4.339590   -1.464145
     12          8           0        3.132794    3.217222   -1.141616
     13          1           0       -1.782943    3.944377   -1.200016
     14          1           0       -3.840159    2.611829   -0.629351
     15         16           0       -4.256766    0.007462    0.436472
     16          1           0       -1.373791   -0.712913    0.448309
     17          1           0        3.154746    0.728668   -0.277661
     18         16           0        1.356329   -1.257626    0.485899
     19          8           0        2.832732   -1.413414    0.487062
     20          8           0        0.661307   -2.079743   -0.532292
     21          8           0        0.743736   -1.282745    1.834714
     22          8           0       -4.363574    0.252090    1.898488
     23          8           0       -4.033394   -1.406087    0.060823
     24          8           0       -5.315981    0.692691   -0.356792
 ---------------------------------------------------------------------

 SCF Done:  E(UB3LYP) =  -1781.94867983     A.U. after    2 cycles

 Alpha  occ. eigenvalues --  -88.83144 -88.82081 -18.94823 -18.94249 -18.87502
 Alpha  occ. eigenvalues --  -18.87377 -18.87372 -18.86384 -18.86307 -18.86265
 Alpha  occ. eigenvalues --  -10.08937 -10.08293 -10.03196 -10.02120 -10.00965
 Alpha  occ. eigenvalues --  -10.00888 -10.00626  -9.99677  -9.99556  -9.99361
 Alpha  occ. eigenvalues --   -7.88992  -7.87927  -5.85245  -5.85236  -5.85219
 Alpha  occ. eigenvalues --   -5.84178  -5.84167  -5.84161  -0.89447  -0.88629
 Alpha  occ. eigenvalues --   -0.88226  -0.85825  -0.75763  -0.75685  -0.74632
 Alpha  occ. eigenvalues --   -0.74385  -0.69608  -0.64018  -0.58722  -0.56631
 Alpha  occ. eigenvalues --   -0.52004  -0.45452  -0.44215  -0.41899  -0.37961
 Alpha  occ. eigenvalues --   -0.35978  -0.34393  -0.31499  -0.30100  -0.28335
 Alpha  occ. eigenvalues --   -0.27445  -0.26449  -0.26416  -0.25714  -0.25249
 Alpha  occ. eigenvalues --   -0.23386  -0.23207  -0.22470  -0.21976  -0.21780
 Alpha  occ. eigenvalues --   -0.20633  -0.20490  -0.19177  -0.17376  -0.13974
 Alpha  occ. eigenvalues --   -0.12118  -0.11581  -0.11232  -0.10555  -0.10328
 Alpha  occ. eigenvalues --   -0.09604  -0.08454  -0.08189  -0.07510  -0.07030
 Alpha  occ. eigenvalues --   -0.06666  -0.06156  -0.06132  -0.05101  -0.03580
 Alpha  occ. eigenvalues --   -0.02503
 Alpha virt. eigenvalues --    0.06052   0.13959   0.16005   0.17137   0.17875
 Alpha virt. eigenvalues --    0.19231   0.20345   0.21277   0.21877   0.22089
 Alpha virt. eigenvalues --    0.22930   0.24041   0.24266   0.24562   0.24846

  Beta  occ. eigenvalues --  -88.83144 -88.82081 -18.94823 -18.94249 -18.87502
  Beta  occ. eigenvalues --  -18.87377 -18.87372 -18.86384 -18.86307 -18.86265
  Beta  occ. eigenvalues --  -10.08937 -10.08293 -10.03196 -10.02120 -10.00965
  Beta  occ. eigenvalues --  -10.00888 -10.00626  -9.99677  -9.99556  -9.99361
  Beta  occ. eigenvalues --   -7.88992  -7.87927  -5.85245  -5.85236  -5.85219
  Beta  occ. eigenvalues --   -5.84178  -5.84167  -5.84161  -0.89447  -0.88629
  Beta  occ. eigenvalues --   -0.88226  -0.85825  -0.75763  -0.75685  -0.74632
  Beta  occ. eigenvalues --   -0.74385  -0.69608  -0.64018  -0.58722  -0.56631
  Beta  occ. eigenvalues --   -0.52004  -0.45452  -0.44215  -0.41899  -0.37961
  Beta  occ. eigenvalues --   -0.35978  -0.34393  -0.31499  -0.30100  -0.28335
  Beta  occ. eigenvalues --   -0.27445  -0.26449  -0.26416  -0.25714  -0.25249
  Beta  occ. eigenvalues --   -0.23386  -0.23207  -0.22470  -0.21976  -0.21780
  Beta  occ. eigenvalues --   -0.20633  -0.20490  -0.19177  -0.17376  -0.13974
  Beta  occ. eigenvalues --   -0.12118  -0.11581  -0.11232  -0.10555  -0.10328
  Beta  occ. eigenvalues --   -0.09604  -0.08454  -0.08189  -0.07510  -0.07030
  Beta  occ. eigenvalues --   -0.06666  -0.06156  -0.06132  -0.05101  -0.03580
  Beta  occ. eigenvalues --   -0.02503
  Beta virt. eigenvalues --    0.06052   0.13959   0.16005   0.17137   0.17875
  Beta virt. eigenvalues --    0.19231   0.20345   0.21277   0.21877   0.22089
  Beta virt. eigenvalues --    0.22930   0.24041   0.24266   0.24562   0.24846

 Mulliken charges and spin densities:
               1          2
     1  C    0.097085  -0.000000
     2  C   -0.325616   0.000000
     3  C   -0.410765  -0.000000
     4  C    0.665030   0.000000
     5  C    0.408238  -0.000000
     6  C   -0.903413   0.000000
     7  C   -0.773776  -0.000000
     8  C    0.112855  -0.000000
     9  C    0.153726   0.000000
    10  C   -0.597271  -0.000000
    11  O   -0.261122  -0.000000
    12  O   -0.293534   0.000000
    13  H    0.145913   0.000000
    14  H    0.208299  -0.000000
    15  S    0.596707  -0.000000
    16  H    0.183085   0.000000
    17  H    0.265796   0.000000
    18  S    0.462453  -0.000000
    19  O   -0.243915  -0.000000
    20  O   -0.261248  -0.000000
    21  O   -0.258896  -0.000000
    22  O   -0.293898   0.000000
    23  O   -0.313148  -0.000000
    24  O   -0.362586  -0.000000
 Sum of Mulliken charges =  -2.00000   0.00000

 Dipole moment (field-independent basis, Debye):
    X=              9.8710    Y=              0.4091    Z=             -2.3838  Tot=             10.1630
 Quadrupole moment (field-independent basis, Debye-Ang):
   XX=           -262.9740   YY=           -187.8744   ZZ=           -153.9348
   XY=            -10.8820   XZ=             13.4578   YZ=             14.7623

  Exact polarizability: 274.882  29.856 221.244 -20.808 -38.733 134.561
 Approx polarizability: 429.079  71.634 373.444 -40.474 -66.298 229.556

                      1                      2                      3
                      A                      A                      A
 Frequencies --      9.4982                23.6104                43.4345
 Red. masses --     16.0254                11.9264                15.8235
 Frc consts  --      0.0009                 0.0039                 0.0176
 IR Inten    --      0.0618                 0.1188                 0.2808

                      4                      5                      6
                      A                      A                      A
 Frequencies --     64.7259                86.1609                90.3628
 Red. masses --      9.0296                17.0435                 8.6693
 Frc consts  --      0.0223                 0.0745                 0.0417
 IR Inten    --      4.9900                 0.3195                 5.1617

                      7                      8                      9
                      A                      A                      A
 Frequencies --    143.5013               160.2596               186.6484
 Red. masses --      6.5105                11.5812                 7.0533
 Frc consts  --      0.0790                 0.1752                 0.1448
 IR Inten    --      1.8151                10.0982                 0.6630

                     10                     11                     12
                      A                      A                      A
 Frequencies --    201.0944               224.5383               253.2661
 Red. masses --     15.0748                11.0240                14.1101
 Frc consts  --      0.3592                 0.3275                 0.5333
 IR Inten    --      0.3469                 2.5202                 1.8251

                     13                     14                     15
                      A                      A                      A
 Frequencies --    256.1244               304.7721               322.1938
 Red. masses --     13.2189                 7.2172                12.7469
 Frc consts  --      0.5109                 0.3950                 0.7796
 IR Inten    --      4.3669                 0.9473                 4.0658

                     16                     17                     18
                      A                      A                      A
 Frequencies --    368.4611               382.1592               419.2676
 Red. masses --     14.2856                 7.2978                 3.4209
 Frc consts  --      1.1427                 0.6280                 0.3543
 IR Inten    --      1.5722                 7.3950                 0.1456

                     19                     20                     21
                      A                      A                      A
 Frequencies --    451.9135               458.2826               482.8277
 Red. masses --     12.1794                 9.6214                 9.8120
 Frc consts  --      1.4655                 1.1906                 1.3477
 IR Inten    --      0.8830                 5.6030                34.7211

                     22                     23                     24
                      A                      A                      A
 Frequencies --    492.2246               494.4279               516.9658
 Red. masses --     11.1268                15.4214                 8.3135
 Frc consts  --      1.5884                 2.2212                 1.3090
 IR Inten    --     18.7949                 4.0951                27.5369

                     25                     26                     27
                      A                      A                      A
 Frequencies --    523.5715               551.3598               584.3779
 Red. masses --     12.2990                 5.7132                11.2575
 Frc consts  --      1.9864                 1.0233                 2.2651
 IR Inten    --      8.9289                 8.3982                85.6792

                     28                     29                     30
                      A                      A                      A
 Frequencies --    610.1995               634.8080               661.0099
 Red. masses --     16.8321                 9.9475                 7.3149
 Frc consts  --      3.6926                 2.3618                 1.8831
 IR Inten    --    140.4223               111.4335                13.7904

                     31                     32                     33
                      A                      A                      A
 Frequencies --    688.8271               701.6119               713.5859
 Red. masses --      6.5947                 5.1548                 7.2389
 Frc consts  --      1.8436                 1.4951                 2.1718
 IR Inten    --     31.9492                 1.7895                 0.9127

                     34                     35                     36
                      A                      A                      A
 Frequencies --    802.9513               820.1723               862.5027
 Red. masses --      3.7606                 8.0103                 1.5185
 Frc consts  --      1.4285                 3.1747                 0.6656
 IR Inten    --      7.0248                 2.6860                 9.5299

                     37                     38                     39
                      A                      A                      A
 Frequencies --    899.8308               917.6506               923.3017
 Red. masses --      1.4022                 1.4401                 5.1607
 Frc consts  --      0.6690                 0.7145                 2.5921
 IR Inten    --     16.1527                 4.1821                12.5225

                     40                     41                     42
                      A                      A                      A
 Frequencies --    965.0899               982.3570               993.8789
 Red. masses --      8.9744                11.9312                 1.7930
 Frc consts  --      4.9249                 6.7838                 1.0435
 IR Inten    --    173.1867                75.9682                44.5408

                     43                     44                     45
                      A                      A                      A
 Frequencies --    994.6922              1100.7838              1129.3527
 Red. masses --      3.6543                 2.3663                 2.0297
 Frc consts  --      2.1302                 1.6894                 1.5252
 IR Inten    --    135.4567                20.0399                53.0978

                     46                     47                     48
                      A                      A                      A
 Frequencies --   1150.4166              1163.4575              1175.6333
 Red. masses --     11.4182                 5.4784                18.9962
 Frc consts  --      8.9035                 4.3692                15.4690
 IR Inten    --    247.4453               154.9110               144.2522

                     49                     50                     51
                      A                      A                      A
 Frequencies --   1177.9169              1182.0795              1226.8300
 Red. masses --      3.4372                11.1379                 2.6203
 Frc consts  --      2.8099                 9.1695                 2.3236
 IR Inten    --    121.8520               365.8776                 8.2996

                     52                     53                     54
                      A                      A                      A
 Frequencies --   1265.2820              1300.8927              1331.3877
 Red. masses --      2.7516                 1.9486                 2.8221
 Frc consts  --      2.5954                 1.9429                 2.9474
 IR Inten    --     88.6610               141.1565                20.8316

                     55                     56                     57
                      A                      A                      A
 Frequencies --   1338.7622              1410.6976              1495.0154
 Red. masses --      4.0657                 4.1093                 2.5693
 Frc consts  --      4.2933                 4.8182                 3.3834
 IR Inten    --     41.1561                33.0541                 0.3547

                     58                     59                     60
                      A                      A                      A
 Frequencies --   1576.5307              1599.8633              1606.0978
 Red. masses --      6.8410                 5.5840                 8.2573
 Frc consts  --     10.0179                 8.4209                12.5496
 IR Inten    --     14.3070               152.9683               141.7524

                     61                     62                     63
                      A                      A                      A
 Frequencies --   1691.2875              1724.0999              3174.4350
 Red. masses --     12.4305                12.4454                 1.0877
 Frc consts  --     20.9495                21.7964                 6.4579
 IR Inten    --    719.1187                61.4908                 5.5815

                     64                     65                     66
                      A                      A                      A
 Frequencies --   3191.4009              3196.5678              3219.2948
 Red. masses --      1.0896                 1.0931                 1.0917
 Frc consts  --      6.5383                 6.5807                 6.6659
 IR Inten    --      4.9113                 5.4872                10.0619

 - Thermochemistry -
 -------------------
 Temperature   298.150 Kelvin.  Pressure   1.00000 Atm.
 Atom     1 has atomic number  6 and mass  12.00000

 Molecular mass:   315.93476 amu.
 Principal axes and moments of inertia in atomic units:
                           1         2         3
     Eigenvalues --  4395.854638411.87932**********
           X            0.98137  -0.18188   0.06193
           Y            0.15139   0.93047   0.33361
           Z           -0.11830  -0.31802   0.94067
 This molecule is an asymmetric top.
 Rotational symmetry number  1.
 Warning -- assumption of classical behavior for rotation
           may cause significant error
 Rotational temperatures (Kelvin)      0.01970     0.01030     0.00716
 Rotational constants (GHZ):           0.41056     0.21455     0.14922
 Zero-point vibrational energy     357064.9 (Joules/Mol)
                                   85.34055 (Kcal/Mol)
 Warning -- explicit consideration of  28 degrees of freedom as
           vibrations may cause significant error
 Vibrational temperatures:     13.67    33.97    62.49    93.13   123.97
          (Kelvin)            130.01   206.47   230.58   268.55   289.33
                              323.06   364.39   368.51   438.50   463.57
                              530.13   549.84   603.23   650.20   659.37
                              694.68   708.20   711.37   743.80   753.30
                              793.28   840.79   877.94   913.35   951.05
                              991.07  1009.46  1026.69  1155.27  1180.05
                             1240.95  1294.66  1320.29  1328.43  1388.55
                             1413.39  1429.97  1431.14  1583.78  1624.89
                             1655.19  1673.96  1691.47  1694.76  1700.75
                             1765.13  1820.46  1871.69  1915.57  1926.18
                             2029.68  2150.99  2268.28  2301.85  2310.82
                             2433.39  2480.60  4567.30  4591.71  4599.15
                             4631.85

 Zero-point correction=                           0.135999 (Hartree/Particle)
 Thermal correction to Energy=                    0.152987
 Thermal correction to Enthalpy=                  0.153932
 Thermal correction to Gibbs Free Energy=         0.087703
 Sum of electronic and zero-point Energies=          -1781.812681
 Sum of electronic and thermal Energies=             -1781.795692
 Sum of electronic and thermal Enthalpies=           -1781.794748
 Sum of electronic and thermal Free Energies=        -1781.860977

                     E (Thermal)             CV                S
                      KCal/Mol        Cal/Mol-Kelvin    Cal/Mol-Kelvin
 Total                   96.001             62.546            139.389
 Electronic               0.000              0.000              0.000
 Translational            0.889              2.981             43.147
 Rotational               0.889              2.981             34.458
 Vibrational             94.224             56.585             61.785
 Vibration     1          0.593              1.987              8.113
 Vibration     2          0.593              1.985              6.305
 Vibration     3          0.595              1.980              5.096
 Vibration     4          0.597              1.971              4.308
 Vibration     5          0.601              1.959              3.745
 Vibration     6          0.602              1.956              3.652
 Vibration     7          0.616              1.910              2.757
 Vibration     8          0.622              1.891              2.547
 Vibration     9          0.632              1.858              2.261
 Vibration    10          0.638              1.838              2.123
 Vibration    11          0.649              1.804              1.922
 Vibration    12          0.664              1.757              1.708
 Vibration    13          0.666              1.752              1.688
 Vibration    14          0.696              1.665              1.391
 Vibration    15          0.707              1.631              1.299
 Vibration    16          0.741              1.537              1.086
 Vibration    17          0.752              1.508              1.031
 Vibration    18          0.782              1.428              0.894
 Vibration    19          0.811              1.357              0.790
 Vibration    20          0.816              1.343              0.771
 Vibration    21          0.839              1.288              0.702
 Vibration    22          0.848              1.267              0.678
 Vibration    23          0.850              1.262              0.672
 Vibration    24          0.872              1.212              0.617
 Vibration    25          0.879              1.198              0.602
 Vibration    26          0.907              1.137              0.541
 Vibration    27          0.941              1.065              0.477
 Vibration    28          0.969              1.010              0.432

 Optimization completed.
    -- Stationary point found.
 Normal termination of Gaussian 16 at Sat Jan 27 02:26:51 2024.
