 Q-Chem 5.4, Q-Chem, Inc., Pleasanton, CA (2021)
 Q-Chem 5.4.0 for Intel X86 EM64T Linux

User input:
--------------------------------------------------------------
$molecule
-1 2
C                 -2.8936590000      1.3085910000     -0.7452600000
C                 -2.1732080000      0.0820270000     -0.1527180000
C                 -2.7230090000     -0.1373420000      1.2781290000
C                 -2.5297160000     -1.1407540000     -1.0332700000
C                 -0.6428080000      0.2613820000     -0.1026590000
C                 -0.0359640000      1.4211120000     -0.5552240000
C                  1.3776540000      1.6801530000     -0.5495200000
O                  1.8662200000      2.7614070000     -0.9779740000
C                  2.2212100000      0.6040210000     -0.0118260000
C                  3.6205100000      0.7555470000      0.0396870000
C                  4.4265380000     -0.2493950000      0.5434410000
C                  3.8446400000     -1.4438060000      1.0131080000
C                  2.4718440000     -1.6087500000      0.9696040000
C                  1.6322980000     -0.5966840000      0.4599550000
C                  0.1735390000     -0.8173790000      0.4335570000
O                 -0.3065040000     -1.9044570000      0.8649610000
H                 -2.5807140000      1.5088980000     -1.7741180000
H                 -3.9733600000      1.1233000000     -0.7542550000
H                 -2.7147830000      2.2120400000     -0.1550250000
H                 -2.2631150000     -1.0143940000      1.7322810000
H                 -3.8111900000     -0.2775100000      1.2490410000
H                 -2.5110900000      0.7346190000      1.9057950000
H                 -3.6177600000     -1.2814380000     -1.0645480000
H                 -2.0651950000     -2.0431800000     -0.6372270000
H                 -2.1790110000     -0.9870110000     -2.0592080000
H                 -0.6278760000      2.2345090000     -0.9576100000
H                  4.0358400000      1.6866140000     -0.3295960000
H                  5.5045620000     -0.1201490000      0.5777600000
H                  4.4752220000     -2.2347370000      1.4093400000
H                  1.9988870000     -2.5172350000      1.3242860000
$end
$rem
MAX_SCF_CYCLES=200
BASIS  =  6-311++G(d,p)
GUI  =  2
JOB_TYPE  =  SP
METHOD  =  B3LYP
SOLVENT_METHOD = PCM
$end
$pcm
theory = CPCM
$end
$solvent
dielectric 37.219
opticaldielectric 1.43
$end

--------------------------------------------------------------

             Standard Nuclear Orientation (Angstroms)
    I     Atom           X                Y                Z
 ----------------------------------------------------------------
    1      C      -2.8936590000     1.3085910000    -0.7452600000
    2      C      -2.1732080000     0.0820270000    -0.1527180000
    3      C      -2.7230090000    -0.1373420000     1.2781290000
    4      C      -2.5297160000    -1.1407540000    -1.0332700000
    5      C      -0.6428080000     0.2613820000    -0.1026590000
    6      C      -0.0359640000     1.4211120000    -0.5552240000
    7      C       1.3776540000     1.6801530000    -0.5495200000
    8      O       1.8662200000     2.7614070000    -0.9779740000
    9      C       2.2212100000     0.6040210000    -0.0118260000
   10      C       3.6205100000     0.7555470000     0.0396870000
   11      C       4.4265380000    -0.2493950000     0.5434410000
   12      C       3.8446400000    -1.4438060000     1.0131080000
   13      C       2.4718440000    -1.6087500000     0.9696040000
   14      C       1.6322980000    -0.5966840000     0.4599550000
   15      C       0.1735390000    -0.8173790000     0.4335570000
   16      O      -0.3065040000    -1.9044570000     0.8649610000
   17      H      -2.5807140000     1.5088980000    -1.7741180000
   18      H      -3.9733600000     1.1233000000    -0.7542550000
   19      H      -2.7147830000     2.2120400000    -0.1550250000
   20      H      -2.2631150000    -1.0143940000     1.7322810000
   21      H      -3.8111900000    -0.2775100000     1.2490410000
   22      H      -2.5110900000     0.7346190000     1.9057950000
   23      H      -3.6177600000    -1.2814380000    -1.0645480000
   24      H      -2.0651950000    -2.0431800000    -0.6372270000
   25      H      -2.1790110000    -0.9870110000    -2.0592080000
   26      H      -0.6278760000     2.2345090000    -0.9576100000
   27      H       4.0358400000     1.6866140000    -0.3295960000
   28      H       5.5045620000    -0.1201490000     0.5777600000
   29      H       4.4752220000    -2.2347370000     1.4093400000
   30      H       1.9988870000    -2.5172350000     1.3242860000
 ----------------------------------------------------------------

    8    -692.7063652775      7.22e-06  Convergence criterion met
 Total energy in the final basis set =     -692.7063652775

                    Orbital Energies (a.u.)
 --------------------------------------------------------------

 Alpha MOs
 -- Occupied --
-19.0748 -19.0728 -10.2201 -10.2191 -10.1792 -10.1712 -10.1707 -10.1706
-10.1702 -10.1696 -10.1684 -10.1674 -10.1548 -10.1468 -10.1430 -10.1430
 -0.9992  -0.9967  -0.8561  -0.8235  -0.7823  -0.7480  -0.7307  -0.6793
 -0.6727  -0.6667  -0.6163  -0.6092  -0.5605  -0.5359  -0.5024  -0.4904
 -0.4659  -0.4565  -0.4325  -0.4297  -0.4247  -0.4171  -0.4154  -0.4111
 -0.4050  -0.3878  -0.3817  -0.3671  -0.3667  -0.3555  -0.3519  -0.3449
 -0.3364  -0.3279  -0.3226  -0.3160  -0.2704  -0.2552  -0.2461  -0.2423
 -0.2322  -0.1510

 Beta MOs
 -- Occupied --
-19.0690 -19.0668 -10.2182 -10.2174 -10.1793 -10.1708 -10.1703 -10.1701
-10.1691 -10.1685 -10.1683 -10.1674 -10.1535 -10.1468 -10.1429 -10.1429
 -0.9889  -0.9860  -0.8540  -0.8210  -0.7790  -0.7463  -0.7287  -0.6770
 -0.6724  -0.6594  -0.6146  -0.6065  -0.5583  -0.5341  -0.5001  -0.4878
 -0.4635  -0.4557  -0.4319  -0.4278  -0.4238  -0.4150  -0.4085  -0.4033
 -0.4012  -0.3800  -0.3790  -0.3663  -0.3572  -0.3509  -0.3462  -0.3360
 -0.3351  -0.3263  -0.3199  -0.3154  -0.2489  -0.2454  -0.2390  -0.2370
 -0.2270

          Ground-State Mulliken Net Atomic Charges

     Atom                 Charge (a.u.)    Spin (a.u.)
  --------------------------------------------------------
      1 C                    -0.521192      -0.002101
      2 C                     0.727041      -0.019659
      3 C                    -0.706698       0.013331
      4 C                    -0.704615       0.013415
      5 C                     0.752852       0.078192
      6 C                    -0.319672       0.079322
      7 C                    -0.587774       0.108622
      8 O                    -0.519108       0.212206
      9 C                     0.595968       0.027518
     10 C                    -0.136253       0.024583
     11 C                    -0.457236       0.025180
     12 C                    -0.428747       0.028950
     13 C                     0.122018       0.045713
     14 C                     0.304576       0.037222
     15 C                    -1.005066       0.118288
     16 O                    -0.448437       0.228486
     17 H                     0.139274      -0.000525
     18 H                     0.179534       0.000001
     19 H                     0.139234      -0.000538
     20 H                     0.178401      -0.002030
     21 H                     0.156512       0.001153
     22 H                     0.138573       0.000347
     23 H                     0.156497       0.001163
     24 H                     0.177692      -0.002035
     25 H                     0.138843       0.000324
     26 H                     0.196379      -0.008488
     27 H                     0.164167      -0.002310
     28 H                     0.198313      -0.002045
     29 H                     0.197163      -0.002158
     30 H                     0.171760      -0.002127
  --------------------------------------------------------
  Sum of atomic charges =    -1.000000

                    Cartesian Multipole Moments
 -----------------------------------------------------------------
    Charge (ESU x 10^10)
                -4.8032
    Dipole Moment (Debye)
         X      -4.3253      Y      -2.5670      Z       0.4452
       Tot       5.0494
    Quadrupole Moments (Debye-Ang)
        XX    -105.1956     XY     -16.1610     YY    -128.6251
        XZ       6.5427     YZ       9.6144     ZZ    -106.5629

 Total job time:  63.15s(wall), 408.17s(cpu)
        *  Thank you very much for using Q-Chem.  Have a nice day.  *
