 Q-Chem 5.4, Q-Chem, Inc., Pleasanton, CA (2021)
 Q-Chem 5.4.0 for Intel X86 EM64T Linux

User input:
--------------------------------------------------------------
$molecule
-2 1
C                  5.6703580000     -5.1029350000      1.2839460000
C                  6.6812700000     -5.0269060000      0.3574180000
C                  6.5948040000     -4.0578200000     -0.7073420000
C                  4.5233130000     -4.2643720000      1.2506150000
C                  4.4357390000     -3.2817840000      0.1710800000
C                  5.4729170000     -3.2178080000     -0.7629880000
C                  3.4997550000     -4.4005030000      2.2575340000
C                  2.4151140000     -3.4839870000      2.0835400000
C                  2.3167570000     -2.5397850000      1.0580820000
C                  3.2988120000     -2.3653270000      0.0380070000
O                  3.5512470000     -5.2593650000      3.2245770000
O                  3.2039030000     -1.4948500000     -0.9016080000
C                  7.6250060000     -3.9642170000     -1.6705670000
N                  8.4937210000     -3.9120460000     -2.4513780000
H                  5.7109810000     -5.8238530000      2.0955130000
H                  7.5451920000     -5.6834340000      0.4116600000
H                  5.3763900000     -2.4773780000     -1.5512420000
H                  1.6154900000     -3.5484980000      2.8231260000
H                  1.4469610000     -1.8840230000      1.0113160000
$end

$rem
BASIS  =  6-311++G(d,p)
GUI  =  2
JOB_TYPE  =  SP
METHOD  =  B3LYP
SCF_CONVERGENCE  = 8
SOLVENT_METHOD = sm12
$end

$smx
solvent dimethylformamide
charges CM5
$end

--------------------------------------------------------------

             Standard Nuclear Orientation (Angstroms)
    I     Atom           X                Y                Z
 ----------------------------------------------------------------
    1      C       5.6703580000    -5.1029350000     1.2839460000
    2      C       6.6812700000    -5.0269060000     0.3574180000
    3      C       6.5948040000    -4.0578200000    -0.7073420000
    4      C       4.5233130000    -4.2643720000     1.2506150000
    5      C       4.4357390000    -3.2817840000     0.1710800000
    6      C       5.4729170000    -3.2178080000    -0.7629880000
    7      C       3.4997550000    -4.4005030000     2.2575340000
    8      C       2.4151140000    -3.4839870000     2.0835400000
    9      C       2.3167570000    -2.5397850000     1.0580820000
   10      C       3.2988120000    -2.3653270000     0.0380070000
   11      O       3.5512470000    -5.2593650000     3.2245770000
   12      O       3.2039030000    -1.4948500000    -0.9016080000
   13      C       7.6250060000    -3.9642170000    -1.6705670000
   14      N       8.4937210000    -3.9120460000    -2.4513780000
   15      H       5.7109810000    -5.8238530000     2.0955130000
   16      H       7.5451920000    -5.6834340000     0.4116600000
   17      H       5.3763900000    -2.4773780000    -1.5512420000
   18      H       1.6154900000    -3.5484980000     2.8231260000
   19      H       1.4469610000    -1.8840230000     1.0113160000
 ----------------------------------------------------------------

   19    -627.5324731238      3.06e-09  Convergence criterion met
 Total energy in the final basis set =     -627.8031394142

                    Orbital Energies (a.u.)
 --------------------------------------------------------------

 Alpha MOs
 -- Occupied --
-19.0424 -19.0303 -14.3280 -10.2326 -10.2102 -10.2038 -10.1940 -10.1940
-10.1889 -10.1793 -10.1711 -10.1646 -10.1588 -10.1552  -0.9579  -0.9433
 -0.9273  -0.8622  -0.7988  -0.7651  -0.7460  -0.6764  -0.6425  -0.6171
 -0.5665  -0.5425  -0.5064  -0.4699  -0.4537  -0.4366  -0.4272  -0.4122
 -0.4117  -0.3962  -0.3832  -0.3801  -0.3733  -0.3563  -0.3466  -0.3391
 -0.3315  -0.3308  -0.2635  -0.2488  -0.2427  -0.2162  -0.2073  -0.1350

          Ground-State Mulliken Net Atomic Charges

     Atom                 Charge (a.u.)
  ----------------------------------------
      1 C                     0.601697
      2 C                     0.812531
      3 C                     2.893310
      4 C                    -1.515220
      5 C                    -1.639555
      6 C                    -0.146300
      7 C                    -1.440339
      8 C                    -0.212394
      9 C                     0.093556
     10 C                    -1.094110
     11 O                    -0.397952
     12 O                    -0.365427
     13 C                    -0.322291
     14 N                    -0.271592
     15 H                     0.162594
     16 H                     0.375340
     17 H                     0.138438
     18 H                     0.148733
     19 H                     0.178982
  ----------------------------------------
  Sum of atomic charges =    -2.000000

                    Cartesian Multipole Moments
 -----------------------------------------------------------------
    Charge (ESU x 10^10)
                -9.6064
    Dipole Moment (Debye)
         X     -42.9245      Y      34.4056      Z      -4.7703
       Tot      55.2179
    Quadrupole Moments (Debye-Ang)
        XX    -328.6741     XY     160.6044     YY    -237.1879
        XZ       8.6097     YZ      38.2271     ZZ    -143.0018

 Total job time:  295.34s(wall), 2268.51s(cpu)
        *  Thank you very much for using Q-Chem.  Have a nice day.  *
