 Q-Chem 5.4, Q-Chem, Inc., Pleasanton, CA (2021)
 Q-Chem 5.4.0 for Intel X86 EM64T Linux

User input:
--------------------------------------------------------------
$molecule
-1 2
C                  1.2829130000     -0.5731710000      1.8459090000
C                  0.8736310000     -1.6009250000      0.9007440000
C                 -0.2502770000     -1.5078610000      0.1362730000
C                 -1.1426900000     -0.3627240000      0.1980480000
C                 -0.7508030000      0.6769060000      1.1234110000
C                  0.3927510000      0.5784560000      1.8838950000
O                  2.3025630000     -0.7002120000      2.5660450000
O                 -2.1867790000     -0.2809100000     -0.5046610000
S                  0.7970420000      1.9684550000      2.9504110000
C                  0.7712730000      1.3190180000      4.6473000000
C                 -0.3845890000      1.4861430000      5.4068940000
C                  1.9045210000      0.7025670000      5.1732820000
C                  1.8699360000      0.2436650000      6.4889430000
C                 -0.4078110000      1.0208690000      6.7206430000
C                  0.7187890000      0.4008680000      7.2614860000
O                  2.1589250000      2.4553900000      2.6870550000
O                 -0.3243120000      2.9279570000      2.8753120000
H                  1.5244090000     -2.4687460000      0.8453920000
H                 -0.5256040000     -2.2994450000     -0.5548940000
H                 -1.3842480000      1.5522890000      1.1993550000
H                 -1.2397160000      1.9852920000      4.9684630000
H                  2.7735170000      0.5689650000      4.5442310000
H                  2.7441430000     -0.2422930000      6.9087640000
H                 -1.3024360000      1.1474810000      7.3210490000
H                  0.6987740000      0.0385070000      8.2842680000
$end
$rem
MAX_SCF_CYCLES=200
BASIS  =  6-311++G(d,p)
GUI  =  2
JOB_TYPE  =  SP
METHOD  =  B3LYP
SOLVENT_METHOD = COSMO
$end
$solvent
dielectric 37.219
opticaldielectric 1.43
$end

--------------------------------------------------------------

             Standard Nuclear Orientation (Angstroms)
    I     Atom           X                Y                Z
 ----------------------------------------------------------------
    1      C       1.2528200848     1.3731923274    -0.3801167934
    2      C       2.4916203294     1.8995027842     0.1726020992
    3      C       3.4537154420     1.1131937038     0.7314733141
    4      C       3.3249439454    -0.3314048815     0.8215215841
    5      C       2.1059474647    -0.8787735711     0.2691288462
    6      C       1.1442637123    -0.0767712001    -0.3033225710
    7      O       0.3655136631     2.1224829938    -0.8551664832
    8      O       4.2128386571    -1.0576750408     1.3457256913
    9      S      -0.2967558498    -0.8898966884    -1.0070941056
   10      C      -1.7246949397    -0.2775463076    -0.0648193563
   11      C      -2.2052263457    -1.0478479918     0.9918999331
   12      C      -2.3357821360     0.9205087383    -0.4283526766
   13      C      -3.4504623666     1.3507565128     0.2893700211
   14      C      -3.3192352035    -0.6058792407     1.7036607632
   15      C      -3.9418309096     0.5920244817     1.3521764689
   16      O      -0.4927696899    -0.4932309367    -2.4090292819
   17      O      -0.1967719159    -2.3289262126    -0.6862888959
   18      H       2.6032866241     2.9786570325     0.1211639393
   19      H       4.3637945313     1.5444214663     1.1388069316
   20      H       1.9689532985    -1.9524930508     0.3100499051
   21      H      -1.7134741201    -1.9817904101     1.2338605912
   22      H      -1.9180766375     1.5024395207    -1.2380361851
   23      H      -3.9325139379     2.2842082491     0.0193017569
   24      H      -3.7022184185    -1.1991057663     2.5272371109
   25      H      -4.8086179242     0.9350714120     1.9078636013
 ----------------------------------------------------------------

   10   -1161.4047880736      5.84e-06  Convergence criterion met
 Total energy in the final basis set =    -1161.4047880736
    5   -1161.4932555686      3.69e-06  Convergence criterion met
 Total energy in the final basis set =    -1161.4932555686

                    Orbital Energies (a.u.)
 --------------------------------------------------------------

 Alpha MOs
 -- Occupied --
-89.0569 -19.1250 -19.1229 -19.0966 -19.0956 -10.2472 -10.2378 -10.2131
-10.2093 -10.1930 -10.1903 -10.1902 -10.1872 -10.1856 -10.1849 -10.1792
-10.1785  -8.1208  -6.0837  -6.0825  -6.0816  -1.1165  -1.0229  -1.0177
 -1.0124  -0.8762  -0.8473  -0.7875  -0.7680  -0.7623  -0.7138  -0.6785
 -0.6253  -0.6208  -0.6043  -0.5753  -0.5399  -0.5070  -0.4963  -0.4872
 -0.4782  -0.4742  -0.4557  -0.4534  -0.4464  -0.4363  -0.4268  -0.4238
 -0.4018  -0.3963  -0.3847  -0.3815  -0.3792  -0.3583  -0.3500  -0.3354
 -0.3208  -0.3086  -0.3044  -0.2849  -0.2712  -0.2709  -0.2610  -0.2541
 -0.1833

 Beta MOs
 -- Occupied --
-89.0569 -19.1249 -19.1229 -19.0894 -19.0889 -10.2461 -10.2367 -10.2131
-10.2083 -10.1929 -10.1902 -10.1878 -10.1871 -10.1857 -10.1850 -10.1785
-10.1778  -8.1208  -6.0838  -6.0825  -6.0817  -1.1164  -1.0140  -1.0105
 -1.0040  -0.8762  -0.8410  -0.7863  -0.7663  -0.7622  -0.7058  -0.6742
 -0.6237  -0.6202  -0.6007  -0.5735  -0.5389  -0.5047  -0.4945  -0.4861
 -0.4765  -0.4725  -0.4553  -0.4531  -0.4434  -0.4359  -0.4179  -0.4088
 -0.3983  -0.3861  -0.3799  -0.3780  -0.3647  -0.3582  -0.3491  -0.3349
 -0.3195  -0.3077  -0.2847  -0.2722  -0.2674  -0.2649  -0.2546  -0.2485

          Ground-State Mulliken Net Atomic Charges

     Atom                 Charge (a.u.)    Spin (a.u.)
  --------------------------------------------------------
      1 C                    -0.688821       0.010017
      2 C                     0.036133       0.083494
      3 C                     0.079372       0.038771
      4 C                    -0.483782       0.144952
      5 C                    -0.063700       0.127162
      6 C                     0.296713       0.124532
      7 O                    -0.410279       0.229390
      8 O                    -0.496537       0.267714
      9 S                     0.399514      -0.026823
     10 C                     0.405776       0.007177
     11 C                     0.116704       0.006228
     12 C                    -0.334456       0.013749
     13 C                    -0.451254      -0.005460
     14 C                    -0.485818      -0.001084
     15 C                    -0.357021       0.002794
     16 O                    -0.225484       0.005454
     17 O                    -0.286266      -0.002771
     18 H                     0.229519      -0.006332
     19 H                     0.227852      -0.003966
     20 H                     0.277060      -0.013983
     21 H                     0.260002       0.000705
     22 H                     0.281157      -0.001732
     23 H                     0.233330       0.000143
     24 H                     0.230651       0.000073
     25 H                     0.209634      -0.000205
  --------------------------------------------------------
  Sum of atomic charges =    -1.000000

                    Cartesian Multipole Moments
 -----------------------------------------------------------------
    Charge (ESU x 10^10)
                -4.8032
    Dipole Moment (Debye)
         X      -9.8103      Y       3.2330      Z       4.5090
       Tot      11.2705
    Quadrupole Moments (Debye-Ang)
        XX    -133.7102     XY       9.5402     YY    -123.7561
        XZ     -20.1010     YZ       1.2983     ZZ    -123.6457

 Total job time:  72.66s(wall), 554.78s(cpu)
        *  Thank you very much for using Q-Chem.  Have a nice day.  *
