 Q-Chem 5.4, Q-Chem, Inc., Pleasanton, CA (2021)
 Q-Chem 5.4.0 for Intel X86 EM64T Linux

User input:
--------------------------------------------------------------
$molecule
-2 1
C                 -1.0649970000      0.9975610000     -3.1251160000
C                 -1.8847970000      1.2003530000     -1.9607570000
C                  0.3081560000      0.7759000000     -2.7585490000
C                  0.7309390000      0.4906310000     -1.4644710000
C                 -0.2184700000      0.2488610000     -0.4000410000
C                 -1.4742500000      0.9174260000     -0.6621930000
C                  0.0704380000     -0.5499870000      0.8191930000
C                 -0.8789770000     -0.7917390000      1.8836210000
C                  1.3262180000     -1.2185400000      1.0813630000
C                 -0.4562030000     -1.0769910000      3.1777150000
C                  1.7367580000     -1.5014600000      2.3799220000
C                  0.9169400000     -1.2986790000      3.5442790000
O                 -1.4712770000      1.1521300000     -4.3241900000
O                  1.3232380000     -1.4532090000      4.7433540000
C                  2.2106910000      0.7599940000     -1.1814740000
C                  2.5575450000      2.2564610000     -1.3305470000
C                  4.0220670000      2.5671840000     -0.9971470000
C                  4.3778800000      4.0516850000     -1.1416180000
C                  2.1117140000     -1.9256000000     -0.0255420000
C                  1.9529810000     -3.4589010000      0.0509000000
C                  2.6838690000     -4.1925800000     -1.0804590000
C                  2.5314800000     -5.7170100000     -1.0163780000
C                 -2.3587170000     -1.0611380000      1.6006100000
C                 -2.7054490000     -2.5576520000      1.7494910000
C                 -4.1699600000     -2.8684550000      1.4161140000
C                 -4.5256380000     -4.3530050000      1.5603990000
C                 -2.2597680000      1.6244800000      0.4447020000
C                 -2.1011670000      3.1577880000      0.3682040000
C                 -2.8320530000      3.8914220000      1.4995910000
C                 -2.6798120000      5.4158670000      1.4354740000
H                 -2.8389700000      1.7008730000     -2.1215840000
H                  1.0507840000      0.9483180000     -3.5367510000
H                 -1.1988670000     -1.2493540000      3.9558950000
H                  2.6909140000     -2.0020040000      2.5407760000
H                  2.8608240000      0.1881680000     -1.8590350000
H                  2.4718680000      0.4688810000     -0.1657090000
H                  1.9023160000      2.8344760000     -0.6676100000
H                  2.3336290000      2.5909500000     -2.3493740000
H                  4.6760720000      1.9728380000     -1.6496070000
H                  4.2383380000      2.2394240000      0.0272930000
H                  4.2010130000      4.4010880000     -2.1650210000
H                  5.4295800000      4.2454110000     -0.8985170000
H                  3.7635880000      4.6679490000     -0.4763250000
H                  3.1840090000     -1.6887570000      0.0279140000
H                  1.7639650000     -1.6153610000     -1.0091360000
H                  0.8841040000     -3.7016010000      0.0116650000
H                  2.3141530000     -3.8230200000      1.0188960000
H                  3.7509700000     -3.9336320000     -1.0501100000
H                  2.3121860000     -3.8303090000     -2.0470490000
H                  2.9232340000     -6.1125550000     -0.0725540000
H                  3.0638280000     -6.2157160000     -1.8352790000
H                  1.4773370000     -6.0079190000     -1.0788990000
H                 -2.6199640000     -0.7698930000      0.5849040000
H                 -3.0088440000     -0.4894500000      2.2782950000
H                 -2.4814550000     -2.8922500000      2.7682660000
H                 -2.0502010000     -3.1355210000      1.0864470000
H                 -4.3863010000     -2.5405740000      0.3917270000
H                 -4.8239880000     -2.2742530000      2.0686840000
H                 -3.9113250000     -4.9691250000      0.8949920000
H                 -5.5773330000     -4.5467890000      1.3173220000
H                 -4.3486910000     -4.7025330000      2.5837450000
H                 -1.9119610000      1.3142910000      1.4282960000
H                 -3.3320470000      1.3875540000      0.3913090000
H                 -2.4624370000      3.5218560000     -0.5997750000
H                 -1.0323100000      3.4005870000      0.4073600000
H                 -2.4602820000      3.5292050000      2.4661660000
H                 -3.8991330000      3.6323760000      1.4693110000
H                 -1.6256950000      5.7068780000      1.4979640000
H                 -3.2121890000      5.9145380000      2.2543770000
H                 -3.0716260000      5.8113550000      0.4916510000
$end

$rem
BASIS  =  6-311++G(d,p)
GUI  =  2
JOB_TYPE  =  SP
METHOD  =  B3LYP
SCF_CONVERGENCE  = 8
SOLVENT_METHOD = sm12
$end

$smx
solvent dimethylformamide
charges CM5
$end

--------------------------------------------------------------

             Standard Nuclear Orientation (Angstroms)
    I     Atom           X                Y                Z
 ----------------------------------------------------------------
    1      C      -1.0649970000     0.9975610000    -3.1251160000
    2      C      -1.8847970000     1.2003530000    -1.9607570000
    3      C       0.3081560000     0.7759000000    -2.7585490000
    4      C       0.7309390000     0.4906310000    -1.4644710000
    5      C      -0.2184700000     0.2488610000    -0.4000410000
    6      C      -1.4742500000     0.9174260000    -0.6621930000
    7      C       0.0704380000    -0.5499870000     0.8191930000
    8      C      -0.8789770000    -0.7917390000     1.8836210000
    9      C       1.3262180000    -1.2185400000     1.0813630000
   10      C      -0.4562030000    -1.0769910000     3.1777150000
   11      C       1.7367580000    -1.5014600000     2.3799220000
   12      C       0.9169400000    -1.2986790000     3.5442790000
   13      O      -1.4712770000     1.1521300000    -4.3241900000
   14      O       1.3232380000    -1.4532090000     4.7433540000
   15      C       2.2106910000     0.7599940000    -1.1814740000
   16      C       2.5575450000     2.2564610000    -1.3305470000
   17      C       4.0220670000     2.5671840000    -0.9971470000
   18      C       4.3778800000     4.0516850000    -1.1416180000
   19      C       2.1117140000    -1.9256000000    -0.0255420000
   20      C       1.9529810000    -3.4589010000     0.0509000000
   21      C       2.6838690000    -4.1925800000    -1.0804590000
   22      C       2.5314800000    -5.7170100000    -1.0163780000
   23      C      -2.3587170000    -1.0611380000     1.6006100000
   24      C      -2.7054490000    -2.5576520000     1.7494910000
   25      C      -4.1699600000    -2.8684550000     1.4161140000
   26      C      -4.5256380000    -4.3530050000     1.5603990000
   27      C      -2.2597680000     1.6244800000     0.4447020000
   28      C      -2.1011670000     3.1577880000     0.3682040000
   29      C      -2.8320530000     3.8914220000     1.4995910000
   30      C      -2.6798120000     5.4158670000     1.4354740000
   31      H      -2.8389700000     1.7008730000    -2.1215840000
   32      H       1.0507840000     0.9483180000    -3.5367510000
   33      H      -1.1988670000    -1.2493540000     3.9558950000
   34      H       2.6909140000    -2.0020040000     2.5407760000
   35      H       2.8608240000     0.1881680000    -1.8590350000
   36      H       2.4718680000     0.4688810000    -0.1657090000
   37      H       1.9023160000     2.8344760000    -0.6676100000
   38      H       2.3336290000     2.5909500000    -2.3493740000
   39      H       4.6760720000     1.9728380000    -1.6496070000
   40      H       4.2383380000     2.2394240000     0.0272930000
   41      H       4.2010130000     4.4010880000    -2.1650210000
   42      H       5.4295800000     4.2454110000    -0.8985170000
   43      H       3.7635880000     4.6679490000    -0.4763250000
   44      H       3.1840090000    -1.6887570000     0.0279140000
   45      H       1.7639650000    -1.6153610000    -1.0091360000
   46      H       0.8841040000    -3.7016010000     0.0116650000
   47      H       2.3141530000    -3.8230200000     1.0188960000
   48      H       3.7509700000    -3.9336320000    -1.0501100000
   49      H       2.3121860000    -3.8303090000    -2.0470490000
   50      H       2.9232340000    -6.1125550000    -0.0725540000
   51      H       3.0638280000    -6.2157160000    -1.8352790000
   52      H       1.4773370000    -6.0079190000    -1.0788990000
   53      H      -2.6199640000    -0.7698930000     0.5849040000
   54      H      -3.0088440000    -0.4894500000     2.2782950000
   55      H      -2.4814550000    -2.8922500000     2.7682660000
   56      H      -2.0502010000    -3.1355210000     1.0864470000
   57      H      -4.3863010000    -2.5405740000     0.3917270000
   58      H      -4.8239880000    -2.2742530000     2.0686840000
   59      H      -3.9113250000    -4.9691250000     0.8949920000
   60      H      -5.5773330000    -4.5467890000     1.3173220000
   61      H      -4.3486910000    -4.7025330000     2.5837450000
   62      H      -1.9119610000     1.3142910000     1.4282960000
   63      H      -3.3320470000     1.3875540000     0.3913090000
   64      H      -2.4624370000     3.5218560000    -0.5997750000
   65      H      -1.0323100000     3.4005870000     0.4073600000
   66      H      -2.4602820000     3.5292050000     2.4661660000
   67      H      -3.8991330000     3.6323760000     1.4693110000
   68      H      -1.6256950000     5.7068780000     1.4979640000
   69      H      -3.2121890000     5.9145380000     2.2543770000
   70      H      -3.0716260000     5.8113550000     0.4916510000
 ----------------------------------------------------------------

   15   -1241.8162645327      6.57e-09  Convergence criterion met
 Total energy in the final basis set =    -1242.0733654226

                    Orbital Energies (a.u.)
 --------------------------------------------------------------

 Alpha MOs
 -- Occupied --
-19.0358 -19.0358 -10.1951 -10.1951 -10.1696 -10.1696 -10.1696 -10.1696
-10.1671 -10.1671 -10.1670 -10.1670 -10.1667 -10.1667 -10.1667 -10.1667
-10.1666 -10.1666 -10.1666 -10.1666 -10.1632 -10.1632 -10.1632 -10.1632
-10.1609 -10.1607 -10.1355 -10.1355 -10.1354 -10.1354  -0.9519  -0.9519
 -0.8463  -0.8243  -0.8127  -0.8059  -0.7945  -0.7906  -0.7648  -0.7558
 -0.7315  -0.7253  -0.7208  -0.6934  -0.6933  -0.6671  -0.6464  -0.6427
 -0.6270  -0.6251  -0.5900  -0.5876  -0.5830  -0.5804  -0.5624  -0.5555
 -0.5392  -0.5380  -0.4943  -0.4834  -0.4794  -0.4744  -0.4724  -0.4594
 -0.4399  -0.4387  -0.4365  -0.4333  -0.4320  -0.4278  -0.4276  -0.4229
 -0.4166  -0.4104  -0.4101  -0.4095  -0.4018  -0.3946  -0.3911  -0.3811
 -0.3809  -0.3775  -0.3775  -0.3731  -0.3702  -0.3603  -0.3599  -0.3574
 -0.3535  -0.3482  -0.3470  -0.3451  -0.3434  -0.3404  -0.3375  -0.3362
 -0.3326  -0.3324  -0.3321  -0.3295  -0.3277  -0.3272  -0.3183  -0.3176
 -0.3015  -0.2967  -0.2570  -0.2189  -0.2168  -0.2035  -0.2027  -0.1951
 -0.1360

          Ground-State Mulliken Net Atomic Charges

     Atom                 Charge (a.u.)
  ----------------------------------------
      1 C                    -2.092552
      2 C                    -1.048735
      3 C                    -1.054690
      4 C                    -0.955567
      5 C                    -0.839095
      6 C                    -0.927959
      7 C                    -0.839021
      8 C                    -0.955789
      9 C                    -0.928262
     10 C                    -1.054469
     11 C                    -1.048583
     12 C                    -2.092525
     13 O                    -0.426848
     14 O                    -0.426848
     15 C                    -0.102326
     16 C                     0.737257
     17 C                     1.108385
     18 C                     0.639262
     19 C                    -0.098125
     20 C                     0.741598
     21 C                     1.100303
     22 C                     0.638060
     23 C                    -0.102113
     24 C                     0.736990
     25 C                     1.108461
     26 C                     0.639256
     27 C                    -0.098286
     28 C                     0.741723
     29 C                     1.100203
     30 C                     0.638095
     31 H                     0.025415
     32 H                     0.022783
     33 H                     0.022807
     34 H                     0.025422
     35 H                     0.315913
     36 H                    -0.355979
     37 H                    -0.274616
     38 H                     0.165582
     39 H                     0.141966
     40 H                     0.122564
     41 H                     0.134942
     42 H                     0.358363
     43 H                     0.155780
     44 H                     0.315185
     45 H                    -0.351363
     46 H                    -0.275300
     47 H                     0.166964
     48 H                     0.141919
     49 H                     0.122423
     50 H                     0.135083
     51 H                     0.357878
     52 H                     0.155602
     53 H                    -0.356117
     54 H                     0.315889
     55 H                     0.165576
     56 H                    -0.274745
     57 H                     0.122569
     58 H                     0.141972
     59 H                     0.155776
     60 H                     0.358368
     61 H                     0.134943
     62 H                    -0.351238
     63 H                     0.315246
     64 H                     0.166967
     65 H                    -0.275231
     66 H                     0.122427
     67 H                     0.141905
     68 H                     0.155598
     69 H                     0.357875
     70 H                     0.135087
  ----------------------------------------
  Sum of atomic charges =    -2.000000

                    Cartesian Multipole Moments
 -----------------------------------------------------------------
    Charge (ESU x 10^10)
                -9.6064
    Dipole Moment (Debye)
         X       0.7111      Y       1.4462      Z      -2.0133
       Tot       2.5789
    Quadrupole Moments (Debye-Ang)
        XX    -225.4220     XY      12.4156     YY    -226.3321
        XZ     -39.7073     YZ      41.5658     ZZ    -345.3270

 Total job time:  8222.16s(wall), 35416.29s(cpu)
        *  Thank you very much for using Q-Chem.  Have a nice day.  *
