 Q-Chem 5.4, Q-Chem, Inc., Pleasanton, CA (2021)
 Q-Chem 5.4.0 for Intel X86 EM64T Linux

User input:
--------------------------------------------------------------
$molecule
-2 1
C                 -1.1018510000     -1.5223130000      3.5681680000
C                  0.2315990000     -1.7634400000      3.1331260000
C                  0.7245990000     -1.4703940000      1.8534700000
C                 -0.1590810000     -0.8971860000      0.8563240000
C                 -1.5050410000     -0.6621990000      1.2940210000
C                 -1.9666960000     -0.9328290000      2.5768180000
O                 -1.5430930000     -1.8033940000      4.7620100000
O                  0.2114320000     -0.6277620000     -0.3594270000
N                 -3.3213440000     -0.7264160000      3.0046710000
C                 -3.8292770000      0.6618810000      3.2034220000
C                 -5.1127150000      0.5337810000      4.0429810000
C                 -4.1831910000      1.3086640000      1.8540820000
C                 -2.8194860000      1.5579740000      3.9552750000
C                  2.1885650000     -1.7589840000      1.4674850000
C                  3.0176750000     -2.3529660000      2.6228100000
C                  2.2272900000     -2.7684110000      0.2921890000
C                  2.8785940000     -0.4452060000      1.0210320000
H                  0.8825350000     -2.1926920000      3.8895700000
H                 -2.1859300000     -0.2898510000      0.5339580000
H                 -3.3206520000     -1.1726100000      3.9276680000
H                 -4.8919840000      0.0911150000      5.0203590000
H                 -5.8375550000     -0.1091040000      3.5325590000
H                 -5.5774630000      1.5121650000      4.2136730000
H                 -4.8738890000      0.6663320000      1.2982380000
H                 -3.2885150000      1.4526470000      1.2458530000
H                 -4.6573500000      2.2866450000      2.0074310000
H                 -2.5486840000      1.0991700000      4.9105020000
H                 -3.2400230000      2.5554530000      4.1431250000
H                 -1.9033350000      1.6672810000      3.3692790000
H                  3.0559880000     -1.6762890000      3.4823940000
H                  4.0472620000     -2.5293010000      2.2820360000
H                  2.6066690000     -3.3071020000      2.9674400000
H                  1.8041880000     -3.7291950000      0.6077020000
H                  3.2618810000     -2.9424920000     -0.0452320000
H                  1.6323060000     -2.3726590000     -0.5336280000
H                  2.9237460000      0.2595990000      1.8592300000
H                  2.2984640000      0.0026710000      0.2116500000
H                  3.9080230000     -0.6373730000      0.6777540000
$end

$rem
BASIS  =  6-311++G(d,p)
GUI  =  2
JOB_TYPE  =  SP
METHOD  =  B3LYP
SCF_CONVERGENCE  = 8
SOLVENT_METHOD = sm12
$end

$smx
solvent dimethylformamide
charges CM5
$end

--------------------------------------------------------------

             Standard Nuclear Orientation (Angstroms)
    I     Atom           X                Y                Z
 ----------------------------------------------------------------
    1      C      -1.1018510000    -1.5223130000     3.5681680000
    2      C       0.2315990000    -1.7634400000     3.1331260000
    3      C       0.7245990000    -1.4703940000     1.8534700000
    4      C      -0.1590810000    -0.8971860000     0.8563240000
    5      C      -1.5050410000    -0.6621990000     1.2940210000
    6      C      -1.9666960000    -0.9328290000     2.5768180000
    7      O      -1.5430930000    -1.8033940000     4.7620100000
    8      O       0.2114320000    -0.6277620000    -0.3594270000
    9      N      -3.3213440000    -0.7264160000     3.0046710000
   10      C      -3.8292770000     0.6618810000     3.2034220000
   11      C      -5.1127150000     0.5337810000     4.0429810000
   12      C      -4.1831910000     1.3086640000     1.8540820000
   13      C      -2.8194860000     1.5579740000     3.9552750000
   14      C       2.1885650000    -1.7589840000     1.4674850000
   15      C       3.0176750000    -2.3529660000     2.6228100000
   16      C       2.2272900000    -2.7684110000     0.2921890000
   17      C       2.8785940000    -0.4452060000     1.0210320000
   18      H       0.8825350000    -2.1926920000     3.8895700000
   19      H      -2.1859300000    -0.2898510000     0.5339580000
   20      H      -3.3206520000    -1.1726100000     3.9276680000
   21      H      -4.8919840000     0.0911150000     5.0203590000
   22      H      -5.8375550000    -0.1091040000     3.5325590000
   23      H      -5.5774630000     1.5121650000     4.2136730000
   24      H      -4.8738890000     0.6663320000     1.2982380000
   25      H      -3.2885150000     1.4526470000     1.2458530000
   26      H      -4.6573500000     2.2866450000     2.0074310000
   27      H      -2.5486840000     1.0991700000     4.9105020000
   28      H      -3.2400230000     2.5554530000     4.1431250000
   29      H      -1.9033350000     1.6672810000     3.3692790000
   30      H       3.0559880000    -1.6762890000     3.4823940000
   31      H       4.0472620000    -2.5293010000     2.2820360000
   32      H       2.6066690000    -3.3071020000     2.9674400000
   33      H       1.8041880000    -3.7291950000     0.6077020000
   34      H       3.2618810000    -2.9424920000    -0.0452320000
   35      H       1.6323060000    -2.3726590000    -0.5336280000
   36      H       2.9237460000     0.2595990000     1.8592300000
   37      H       2.2984640000     0.0026710000     0.2116500000
   38      H       3.9080230000    -0.6373730000     0.6777540000
 ----------------------------------------------------------------

   18    -751.4946742532      4.38e-09  Convergence criterion met
 Total energy in the final basis set =     -751.7786221183

                    Orbital Energies (a.u.)
 --------------------------------------------------------------

 Alpha MOs
 -- Occupied --
-19.0176 -19.0128 -14.2910 -10.2164 -10.1868 -10.1750 -10.1692 -10.1681
-10.1678 -10.1670 -10.1649 -10.1615 -10.1594 -10.1591 -10.1375 -10.1312
-10.1290  -0.9361  -0.9269  -0.8967  -0.8213  -0.7951  -0.7626  -0.7031
 -0.6960  -0.6923  -0.6878  -0.6866  -0.6453  -0.5911  -0.5563  -0.5469
 -0.5148  -0.4801  -0.4659  -0.4576  -0.4519  -0.4471  -0.4407  -0.4282
 -0.4199  -0.4143  -0.4005  -0.3987  -0.3927  -0.3811  -0.3786  -0.3746
 -0.3720  -0.3651  -0.3536  -0.3514  -0.3443  -0.3354  -0.3339  -0.3292
 -0.3209  -0.3149  -0.3046  -0.2645  -0.2225  -0.1996  -0.1970  -0.1895
 -0.1167

          Ground-State Mulliken Net Atomic Charges

     Atom                 Charge (a.u.)
  ----------------------------------------
      1 C                    -1.444025
      2 C                    -1.109716
      3 C                    -0.813586
      4 C                    -1.728960
      5 C                    -1.933123
      6 C                    -0.262645
      7 O                    -0.346029
      8 O                    -0.287119
      9 N                     0.045687
     10 C                    -0.196917
     11 C                     0.934986
     12 C                    -0.004427
     13 C                    -0.479676
     14 C                     2.323394
     15 C                     0.747916
     16 C                    -0.278004
     17 C                    -0.242877
     18 H                    -0.125778
     19 H                    -0.209251
     20 H                     0.155678
     21 H                     0.217083
     22 H                     0.224732
     23 H                     0.325298
     24 H                     0.107172
     25 H                     0.015914
     26 H                     0.398788
     27 H                    -0.022639
     28 H                     0.439532
     29 H                    -0.133310
     30 H                     0.122889
     31 H                     0.474503
     32 H                     0.133336
     33 H                     0.049201
     34 H                     0.353697
     35 H                     0.075758
     36 H                     0.044971
     37 H                     0.081690
     38 H                     0.345858
  ----------------------------------------
  Sum of atomic charges =    -2.000000

                    Cartesian Multipole Moments
 -----------------------------------------------------------------
    Charge (ESU x 10^10)
                -9.6064
    Dipole Moment (Debye)
         X       5.9037      Y      11.7917      Z     -20.3216
       Tot      24.2253
    Quadrupole Moments (Debye-Ang)
        XX    -152.8276     XY      -5.7746     YY    -142.0405
        XZ      28.1663     YZ      34.9238     ZZ    -210.3024

 Total job time:  1472.87s(wall), 11374.66s(cpu)
        *  Thank you very much for using Q-Chem.  Have a nice day.  *
