 Gaussian 16, Revision A.03,
 Gaussian 16:  ES64L-G16RevA.03 25-Dec-2016

 ----------------------------------------------------------------------
 #P UB3LYP/6-311++G(d,p) nosym opt freq SCRF=(PCM,Solvent=n,n-DiMethylF
 ormamide)
 ----------------------------------------------------------------------

 --------
 Oxidized
 --------
 Symbolic Z-matrix:
 Charge =  0 Multiplicity = 1

 SCF Done:  E(UB3LYP) =  -5757.75551006     A.U. after   15 cycles
 SCF Done:  E(UB3LYP) =  -5757.75571202     A.U. after   12 cycles
 SCF Done:  E(UB3LYP) =  -5757.75578692     A.U. after   12 cycles
 SCF Done:  E(UB3LYP) =  -5757.75579962     A.U. after   11 cycles
 SCF Done:  E(UB3LYP) =  -5757.75580471     A.U. after   11 cycles
 SCF Done:  E(UB3LYP) =  -5757.75581978     A.U. after   11 cycles
 SCF Done:  E(UB3LYP) =  -5757.75583215     A.U. after   11 cycles
 SCF Done:  E(UB3LYP) =  -5757.75583652     A.U. after   11 cycles
 SCF Done:  E(UB3LYP) =  -5757.75583942     A.U. after   11 cycles
 SCF Done:  E(UB3LYP) =  -5757.75584085     A.U. after   11 cycles
 SCF Done:  E(UB3LYP) =  -5757.75584104     A.U. after    9 cycles
 SCF Done:  E(UB3LYP) =  -5757.75584110     A.U. after    8 cycles
 Optimization completed.
    -- Stationary point found.
 Normal termination of Gaussian 16 at Sat Feb 10 10:24:47 2024.

 ----------------------------------------------------------------------
 #P Geom=AllCheck Guess=TCheck SCRF=Check GenChk UB3LYP/6-311++G(d,p) F
 req
 ----------------------------------------------------------------------

 Structure from the checkpoint file:  "023.chk"
 --------
 Oxidized
 --------
 Charge =  0 Multiplicity = 1

                          Input orientation:
 ---------------------------------------------------------------------
 Center     Atomic      Atomic             Coordinates (Angstroms)
 Number     Number       Type             X           Y           Z
 ---------------------------------------------------------------------
      1          6           0       -2.583747   -1.796853   -0.199552
      2          8           0       -2.362646   -0.435940   -0.658641
      3          6           0       -1.308256    0.299270   -0.308357
      4          6           0       -1.416238    1.647824   -0.237609
      5         35           0       -3.082006    2.495745   -0.550931
      6          6           0       -0.272798    2.530599    0.091438
      7          8           0       -0.403633    3.739879    0.175806
      8          6           0        1.036959    1.874347    0.313104
      9          6           0        1.217475    0.536460    0.201363
     10          8           0        2.408254    0.000253    0.465268
     11          6           0        2.907454   -1.205399   -0.174344
     12          6           0        0.036570   -0.344934   -0.104846
     13          8           0        0.166322   -1.549210   -0.185609
     14         35           0        2.491157    3.005475    0.758108
     15          1           0       -2.282117   -1.906882    0.840958
     16          1           0       -3.658114   -1.938732   -0.294520
     17          1           0       -2.047266   -2.503108   -0.827665
     18          1           0        3.988749   -1.126279   -0.085063
     19          1           0        2.544179   -2.089588    0.342719
     20          1           0        2.619701   -1.232926   -1.224207
 ---------------------------------------------------------------------

 SCF Done:  E(UB3LYP) =  -5757.75584110     A.U. after    1 cycles

 Alpha  occ. eigenvalues -- -482.84980-482.84977 -62.50241 -62.50239 -56.32293
 Alpha  occ. eigenvalues --  -56.32290 -56.31900 -56.31898 -56.31857 -56.31854
 Alpha  occ. eigenvalues --  -19.18911 -19.18898 -19.16544 -19.14461 -10.31715
 Alpha  occ. eigenvalues --  -10.30493 -10.29046 -10.29039 -10.25782 -10.25776
 Alpha  occ. eigenvalues --  -10.23472 -10.23469  -8.71206  -8.71204  -6.54391
 Alpha  occ. eigenvalues --   -6.54388  -6.53081  -6.53078  -6.52952  -6.52950
 Alpha  occ. eigenvalues --   -2.65478  -2.65476  -2.65124  -2.65121  -2.65027
 Alpha  occ. eigenvalues --   -2.65024  -2.63984  -2.63982  -2.63982  -2.63980
 Alpha  occ. eigenvalues --   -1.12086  -1.10472  -1.08470  -1.08035  -0.88986
 Alpha  occ. eigenvalues --   -0.85472  -0.80475  -0.77758  -0.74801  -0.70589
 Alpha  occ. eigenvalues --   -0.70278  -0.62713  -0.61870  -0.57384  -0.55182
 Alpha  occ. eigenvalues --   -0.53015  -0.50879  -0.50538  -0.48826  -0.47293
 Alpha  occ. eigenvalues --   -0.46346  -0.45553  -0.44850  -0.43530  -0.43073
 Alpha  occ. eigenvalues --   -0.42256  -0.39677  -0.38997  -0.37036  -0.36858
 Alpha  occ. eigenvalues --   -0.33557  -0.33176  -0.30944  -0.30886  -0.29844
 Alpha  occ. eigenvalues --   -0.29598  -0.27762  -0.25311
 Alpha virt. eigenvalues --   -0.14454  -0.04221  -0.03188  -0.01400  -0.01306
 Alpha virt. eigenvalues --   -0.00672   0.00714   0.00862   0.02208   0.02653
 Alpha virt. eigenvalues --    0.03223   0.03231   0.04505   0.04509   0.04961

  Beta  occ. eigenvalues -- -482.84980-482.84977 -62.50241 -62.50239 -56.32293
  Beta  occ. eigenvalues --  -56.32290 -56.31900 -56.31898 -56.31857 -56.31854
  Beta  occ. eigenvalues --  -19.18911 -19.18898 -19.16544 -19.14461 -10.31715
  Beta  occ. eigenvalues --  -10.30493 -10.29046 -10.29039 -10.25782 -10.25776
  Beta  occ. eigenvalues --  -10.23472 -10.23469  -8.71206  -8.71204  -6.54391
  Beta  occ. eigenvalues --   -6.54388  -6.53081  -6.53078  -6.52952  -6.52950
  Beta  occ. eigenvalues --   -2.65478  -2.65476  -2.65124  -2.65121  -2.65027
  Beta  occ. eigenvalues --   -2.65024  -2.63984  -2.63982  -2.63982  -2.63980
  Beta  occ. eigenvalues --   -1.12086  -1.10472  -1.08470  -1.08035  -0.88986
  Beta  occ. eigenvalues --   -0.85472  -0.80475  -0.77758  -0.74801  -0.70589
  Beta  occ. eigenvalues --   -0.70278  -0.62713  -0.61870  -0.57384  -0.55182
  Beta  occ. eigenvalues --   -0.53015  -0.50879  -0.50538  -0.48826  -0.47293
  Beta  occ. eigenvalues --   -0.46346  -0.45553  -0.44850  -0.43530  -0.43073
  Beta  occ. eigenvalues --   -0.42256  -0.39677  -0.38997  -0.37036  -0.36858
  Beta  occ. eigenvalues --   -0.33557  -0.33176  -0.30944  -0.30886  -0.29844
  Beta  occ. eigenvalues --   -0.29598  -0.27762  -0.25311
  Beta virt. eigenvalues --   -0.14454  -0.04221  -0.03188  -0.01400  -0.01306
  Beta virt. eigenvalues --   -0.00672   0.00714   0.00862   0.02208   0.02653
  Beta virt. eigenvalues --    0.03223   0.03231   0.04505   0.04509   0.04961

 Mulliken charges and spin densities:
               1          2
     1  C   -0.277218  -0.000000
     2  O   -0.137183   0.000000
     3  C   -0.360787  -0.000000
     4  C    0.491037   0.000000
     5  Br  -0.016715   0.000000
     6  C   -0.332542   0.000000
     7  O   -0.233832  -0.000000
     8  C    0.505728   0.000000
     9  C   -0.375800  -0.000000
    10  O   -0.136892   0.000000
    11  C   -0.277738  -0.000000
    12  C    0.280340  -0.000000
    13  O   -0.221532  -0.000000
    14  Br  -0.016696   0.000000
    15  H    0.182144  -0.000000
    16  H    0.181411   0.000000
    17  H    0.191520   0.000000
    18  H    0.181262   0.000000
    19  H    0.191467  -0.000000
    20  H    0.182024  -0.000000
 Sum of Mulliken charges =  -0.00000   0.00000

 Dipole moment (field-independent basis, Debye):
    X=              0.7927    Y=             -7.3473    Z=             -0.5166  Tot=              7.4080
 Quadrupole moment (field-independent basis, Debye-Ang):
   XX=            -98.0388   YY=           -124.7302   ZZ=           -105.1060
   XY=              3.2582   XZ=             -4.5796   YZ=             -1.2467

  Exact polarizability: 227.049  -9.946 305.076  20.300  14.807 121.620
 Approx polarizability: 235.713 -19.542 401.762  20.125  20.156 141.034

                      1                      2                      3
                      A                      A                      A
 Frequencies --     19.9953                40.3429                53.8399
 Red. masses --      4.7952                 3.9090                 7.6311
 Frc consts  --      0.0011                 0.0037                 0.0130
 IR Inten    --     12.7752                 6.1277                 0.1399

                      4                      5                      6
                      A                      A                      A
 Frequencies --     78.2693                79.2331               129.0918
 Red. masses --      5.4621                 4.3632                28.0549
 Frc consts  --      0.0197                 0.0161                 0.2755
 IR Inten    --      3.1019                23.4582                 0.7776

                      7                      8                      9
                      A                      A                      A
 Frequencies --    158.9450               177.7380               180.6458
 Red. masses --      7.0157                 2.1488                 1.7255
 Frc consts  --      0.1044                 0.0400                 0.0332
 IR Inten    --      4.5841                 4.9336                 1.1653

                     10                     11                     12
                      A                      A                      A
 Frequencies --    198.7437               201.5052               234.8277
 Red. masses --      2.0517                 1.8258                 8.6420
 Frc consts  --      0.0477                 0.0437                 0.2808
 IR Inten    --      4.3169                 3.0699                 0.3634

                     13                     14                     15
                      A                      A                      A
 Frequencies --    246.3503               294.8793               332.9569
 Red. masses --      8.5821                11.7215                 4.7548
 Frc consts  --      0.3069                 0.6005                 0.3106
 IR Inten    --      0.7094                 9.6722                10.2627

                     16                     17                     18
                      A                      A                      A
 Frequencies --    362.3894               394.1100               417.5844
 Red. masses --      8.1272                11.8609                 5.8683
 Frc consts  --      0.6288                 1.0854                 0.6029
 IR Inten    --      2.9864                16.8671                 0.0062

                     19                     20                     21
                      A                      A                      A
 Frequencies --    461.0931               473.0371               541.3059
 Red. masses --     11.6475                10.2273                 9.3538
 Frc consts  --      1.4590                 1.3483                 1.6148
 IR Inten    --      7.3031                11.5766                 3.8276

                     22                     23                     24
                      A                      A                      A
 Frequencies --    616.6048               669.4679               734.8898
 Red. masses --      9.6237                12.3204                12.1780
 Frc consts  --      2.1558                 3.2534                 3.8750
 IR Inten    --      2.2850               200.6820                19.5688

                     25                     26                     27
                      A                      A                      A
 Frequencies --    768.3330               787.5658               894.7609
 Red. masses --     11.9097                10.0750                10.8503
 Frc consts  --      4.1424                 3.6819                 5.1181
 IR Inten    --      8.7470                46.9332                 5.0166

                     28                     29                     30
                      A                      A                      A
 Frequencies --    907.9098               937.6039              1083.5536
 Red. masses --      7.7770                10.4788                 7.6157
 Frc consts  --      3.7770                 5.4275                 5.2682
 IR Inten    --     44.9521               332.4825               419.1810

                     31                     32                     33
                      A                      A                      A
 Frequencies --   1102.2976              1157.9960              1158.2144
 Red. masses --     11.2776                 1.2410                 1.2425
 Frc consts  --      8.0736                 0.9804                 0.9820
 IR Inten    --    117.4706                 2.0129                 0.8586

                     34                     35                     36
                      A                      A                      A
 Frequencies --   1181.8080              1198.7709              1239.8942
 Red. masses --      1.4398                 1.4737                10.2243
 Frc consts  --      1.1848                 1.2477                 9.2609
 IR Inten    --    121.8758               111.5346                11.4674

                     37                     38                     39
                      A                      A                      A
 Frequencies --   1290.6499              1327.1405              1472.9165
 Red. masses --      5.1172                 7.0548                 1.1534
 Frc consts  --      5.0222                 7.3210                 1.4744
 IR Inten    --   1474.6145                10.9293                69.4510

                     40                     41                     42
                      A                      A                      A
 Frequencies --   1474.7914              1481.8634              1482.4633
 Red. masses --      1.1143                 1.1162                 1.1286
 Frc consts  --      1.4279                 1.4442                 1.4614
 IR Inten    --      4.4472                18.7693                 9.8063

                     43                     44                     45
                      A                      A                      A
 Frequencies --   1485.8664              1486.1632              1596.7449
 Red. masses --      1.0506                 1.0541                 8.5490
 Frc consts  --      1.3667                 1.3718                12.8421
 IR Inten    --     49.5459                35.5035               454.9941

                     46                     47                     48
                      A                      A                      A
 Frequencies --   1647.2253              1687.4591              1721.6622
 Red. masses --     10.5246                12.9397                12.8006
 Frc consts  --     16.8253                21.7090                22.3551
 IR Inten    --    579.0621               436.1234               532.6313

                     49                     50                     51
                      A                      A                      A
 Frequencies --   3065.3985              3066.0704              3154.3429
 Red. masses --      1.0280                 1.0278                 1.1082
 Frc consts  --      5.6912                 5.6929                 6.4963
 IR Inten    --     48.8810                62.2575                24.0340

                     52                     53                     54
                      A                      A                      A
 Frequencies --   3155.1394              3164.9101              3165.0056
 Red. masses --      1.1082                 1.1089                 1.1089
 Frc consts  --      6.4998                 6.5441                 6.5445
 IR Inten    --     22.6875                24.9262                 5.2362

 - Thermochemistry -
 -------------------
 Temperature   298.150 Kelvin.  Pressure   1.00000 Atm.
 Atom     1 has atomic number  6 and mass  12.00000

 Molecular mass:   323.86328 amu.
 Principal axes and moments of inertia in atomic units:
                           1         2         3
     Eigenvalues --  3446.201736478.885879826.64945
           X            0.97587  -0.10669  -0.19053
           Y            0.09148   0.99200  -0.08697
           Z            0.19829   0.06744   0.97782
 This molecule is an asymmetric top.
 Rotational symmetry number  1.
 Warning -- assumption of classical behavior for rotation
           may cause significant error
 Rotational temperatures (Kelvin)      0.02513     0.01337     0.00881
 Rotational constants (GHZ):           0.52369     0.27856     0.18366
 Zero-point vibrational energy     337600.3 (Joules/Mol)
                                   80.68842 (Kcal/Mol)
 Warning -- explicit consideration of  22 degrees of freedom as
           vibrations may cause significant error
 Vibrational temperatures:     28.77    58.04    77.46   112.61   114.00
          (Kelvin)            185.73   228.69   255.73   259.91   285.95
                              289.92   337.86   354.44   424.27   479.05
                              521.40   567.04   600.81   663.41   680.59
                              778.82   887.16   963.21  1057.34  1105.46
                             1133.13  1287.36  1306.28  1349.00  1558.99
                             1585.96  1666.10  1666.41  1700.36  1724.76
                             1783.93  1856.96  1909.46  2119.20  2121.90
                             2132.07  2132.93  2137.83  2138.26  2297.36
                             2369.99  2427.88  2477.09  4410.42  4411.39
                             4538.40  4539.54  4553.60  4553.74

 Zero-point correction=                           0.128585 (Hartree/Particle)
 Thermal correction to Energy=                    0.143530
 Thermal correction to Enthalpy=                  0.144474
 Thermal correction to Gibbs Free Energy=         0.082922
 Sum of electronic and zero-point Energies=          -5757.627256
 Sum of electronic and thermal Energies=             -5757.612311
 Sum of electronic and thermal Enthalpies=           -5757.611367
 Sum of electronic and thermal Free Energies=        -5757.672919

                     E (Thermal)             CV                S
                      KCal/Mol        Cal/Mol-Kelvin    Cal/Mol-Kelvin
 Total                   90.067             50.237            129.548
 Electronic               0.000              0.000              0.000
 Translational            0.889              2.981             43.221
 Rotational               0.889              2.981             33.750
 Vibrational             88.289             44.275             52.577
 Vibration     1          0.593              1.986              6.635
 Vibration     2          0.594              1.981              5.242
 Vibration     3          0.596              1.976              4.671
 Vibration     4          0.600              1.964              3.934
 Vibration     5          0.600              1.963              3.910
 Vibration     6          0.612              1.924              2.960
 Vibration     7          0.621              1.893              2.562
 Vibration     8          0.628              1.870              2.352
 Vibration     9          0.630              1.866              2.322
 Vibration    10          0.637              1.842              2.145
 Vibration    11          0.638              1.838              2.119
 Vibration    12          0.655              1.788              1.842
 Vibration    13          0.661              1.769              1.757
 Vibration    14          0.689              1.683              1.446
 Vibration    15          0.715              1.610              1.246
 Vibration    16          0.736              1.550              1.112
 Vibration    17          0.761              1.483              0.985
 Vibration    18          0.781              1.432              0.900
 Vibration    19          0.819              1.336              0.763
 Vibration    20          0.830              1.310              0.729
 Vibration    21          0.896              1.159              0.562
 Vibration    22          0.976              0.997              0.422

                           ! Non-Optimized Parameters !
 Normal termination of Gaussian 16 at Sat Feb 10 10:41:02 2024.
