 Gaussian 16, Revision A.03,
 Gaussian 16:  ES64L-G16RevA.03 25-Dec-2016

 ----------------------------------------------------------------
 #P UB3LYP/6-311++G(d,p) SCRF=(PCM,Solvent=n,n-DiMethylFormamide)
 ----------------------------------------------------------------

 ------------------
 Quinone PCM in DMF
 ------------------
 Symbolic Z-matrix:
 Charge =  0 Multiplicity = 1

                         Standard orientation:
 ---------------------------------------------------------------------
 Center     Atomic      Atomic             Coordinates (Angstroms)
 Number     Number       Type             X           Y           Z
 ---------------------------------------------------------------------
      1         17           0       -3.091410   -1.890538    0.000087
      2          6           0       -2.379926   -0.292325    0.000011
      3          6           0       -3.290466    0.765071    0.000113
      4          6           0       -2.844210    2.080053    0.000069
      5          6           0       -1.481971    2.346601   -0.000060
      6          6           0       -0.563711    1.298007   -0.000130
      7          6           0        0.887732    1.674706   -0.000127
      8          8           0        1.226634    2.846761   -0.000093
      9          6           0        1.888576    0.580477    0.000020
     10          6           0        3.251652    0.895815    0.000193
     11          6           0        4.199625   -0.118902    0.000185
     12          6           0        3.792137   -1.456170    0.000018
     13          6           0        2.439834   -1.775588   -0.000085
     14          6           0        1.477303   -0.760470   -0.000062
     15          6           0        0.031722   -1.151140   -0.000153
     16          8           0       -0.273131   -2.329274   -0.000107
     17          6           0       -0.990578   -0.053664   -0.000095
     18          1           0       -4.349242    0.540222    0.000241
     19          1           0       -3.563100    2.891180    0.000160
     20          1           0       -1.101483    3.359697   -0.000070
     21          1           0        3.540754    1.939402    0.000319
     22          1           0        5.255473    0.126656    0.000301
     23          1           0        4.532760   -2.247843   -0.000023
     24          1           0        2.104460   -2.804893   -0.000185
 ---------------------------------------------------------------------

 SCF Done:  E(UB3LYP) =  -1148.57389377     A.U. after   16 cycles

 The electronic state is 1-A.
 Alpha  occ. eigenvalues -- -101.56701 -19.13518 -19.13425 -10.29085 -10.28763
 Alpha  occ. eigenvalues --  -10.26750 -10.22742 -10.21940 -10.21208 -10.21064
 Alpha  occ. eigenvalues --  -10.20963 -10.20729 -10.20289 -10.20103 -10.20059
 Alpha  occ. eigenvalues --  -10.20008 -10.19939  -9.48191  -7.24664  -7.23704
 Alpha  occ. eigenvalues --   -7.23583  -1.07294  -1.07037  -0.91826  -0.89226
 Alpha  occ. eigenvalues --   -0.86428  -0.81812  -0.78153  -0.77789  -0.76632
 Alpha  occ. eigenvalues --   -0.69470  -0.67332  -0.65225  -0.61719  -0.58739
 Alpha  occ. eigenvalues --   -0.56964  -0.56217  -0.51235  -0.49925  -0.49533
 Alpha  occ. eigenvalues --   -0.49193  -0.46485  -0.46295  -0.45918  -0.45362
 Alpha  occ. eigenvalues --   -0.45107  -0.44779  -0.42638  -0.41105  -0.40542
 Alpha  occ. eigenvalues --   -0.39103  -0.38217  -0.37930  -0.37152  -0.35317
 Alpha  occ. eigenvalues --   -0.33676  -0.29667  -0.29045  -0.28245  -0.28115
 Alpha  occ. eigenvalues --   -0.27265  -0.27250
 Alpha virt. eigenvalues --   -0.12255  -0.08013  -0.04352  -0.03357  -0.00664
 Alpha virt. eigenvalues --   -0.00044   0.00286   0.01321   0.01981   0.02464
 Alpha virt. eigenvalues --    0.02726   0.03097   0.03878   0.04222   0.04302

  Beta  occ. eigenvalues -- -101.56701 -19.13518 -19.13425 -10.29085 -10.28763
  Beta  occ. eigenvalues --  -10.26750 -10.22742 -10.21940 -10.21208 -10.21064
  Beta  occ. eigenvalues --  -10.20963 -10.20729 -10.20289 -10.20103 -10.20059
  Beta  occ. eigenvalues --  -10.20008 -10.19939  -9.48191  -7.24664  -7.23704
  Beta  occ. eigenvalues --   -7.23583  -1.07294  -1.07037  -0.91826  -0.89226
  Beta  occ. eigenvalues --   -0.86428  -0.81812  -0.78153  -0.77789  -0.76632
  Beta  occ. eigenvalues --   -0.69470  -0.67332  -0.65225  -0.61719  -0.58739
  Beta  occ. eigenvalues --   -0.56964  -0.56217  -0.51235  -0.49925  -0.49533
  Beta  occ. eigenvalues --   -0.49193  -0.46485  -0.46295  -0.45918  -0.45362
  Beta  occ. eigenvalues --   -0.45107  -0.44779  -0.42638  -0.41105  -0.40542
  Beta  occ. eigenvalues --   -0.39103  -0.38217  -0.37930  -0.37152  -0.35317
  Beta  occ. eigenvalues --   -0.33676  -0.29667  -0.29045  -0.28245  -0.28115
  Beta  occ. eigenvalues --   -0.27265  -0.27250
  Beta virt. eigenvalues --   -0.12255  -0.08013  -0.04352  -0.03357  -0.00664
  Beta virt. eigenvalues --   -0.00044   0.00286   0.01321   0.01981   0.02464
  Beta virt. eigenvalues --    0.02726   0.03097   0.03878   0.04222   0.04302

 Mulliken charges and spin densities:
               1          2
     1  Cl   0.408701   0.000000
     2  C    0.999573  -0.000000
     3  C   -0.043782   0.000000
     4  C   -0.562464  -0.000000
     5  C    0.365263   0.000000
     6  C    0.230292   0.000000
     7  C   -0.831871  -0.000000
     8  O   -0.260704  -0.000000
     9  C   -0.009643   0.000000
    10  C    0.193821  -0.000000
    11  C   -0.392859  -0.000000
    12  C   -0.425801   0.000000
    13  C    0.275400  -0.000000
    14  C    0.061984  -0.000000
    15  C   -1.285213   0.000000
    16  O   -0.175534  -0.000000
    17  C    0.022666  -0.000000
    18  H    0.228911   0.000000
    19  H    0.215127  -0.000000
    20  H    0.193560   0.000000
    21  H    0.187040   0.000000
    22  H    0.207822  -0.000000
    23  H    0.209918   0.000000
    24  H    0.187792   0.000000
 Sum of Mulliken charges =  -0.00000  -0.00000

 Dipole moment (field-independent basis, Debye):
    X=              0.8895    Y=              1.5999    Z=              0.0003  Tot=              1.8305
 Quadrupole moment (field-independent basis, Debye-Ang):
   XX=            -78.0102   YY=           -112.7572   ZZ=           -106.1433
   XY=            -17.0038   XZ=              0.0000   YZ=              0.0011

 Normal termination of Gaussian 16 at Sun Jan 14 01:05:09 2024.
