 Gaussian 16, Revision A.03,
 Gaussian 16:  ES64L-G16RevA.03 25-Dec-2016

 --------------------------------------
 #P UB3LYP/6-311++G(d,p) nosym opt freq
 --------------------------------------

 --------
 Oxidized
 --------
 Symbolic Z-matrix:
 Charge =  0 Multiplicity = 1

 SCF Done:  E(UB3LYP) =  -727.222120991     A.U. after   16 cycles
 SCF Done:  E(UB3LYP) =  -727.231170166     A.U. after   14 cycles
 SCF Done:  E(UB3LYP) =  -727.232023546     A.U. after   12 cycles
 SCF Done:  E(UB3LYP) =  -727.232119609     A.U. after   12 cycles
 SCF Done:  E(UB3LYP) =  -727.232125979     A.U. after   11 cycles
 SCF Done:  E(UB3LYP) =  -727.232126986     A.U. after    9 cycles
 SCF Done:  E(UB3LYP) =  -727.232126826     A.U. after    9 cycles
 SCF Done:  E(UB3LYP) =  -727.232127169     A.U. after    9 cycles
 Optimization completed.
    -- Stationary point found.
 Normal termination of Gaussian 16 at Tue Dec 26 20:36:07 2023.

 ----------------------------------------------------------------------
 #P Geom=AllCheck Guess=TCheck SCRF=Check GenChk UB3LYP/6-311++G(d,p) F
 req
 ----------------------------------------------------------------------

 Structure from the checkpoint file:  "266.chk"
 --------
 Oxidized
 --------
 Charge =  0 Multiplicity = 1

                          Input orientation:
 ---------------------------------------------------------------------
 Center     Atomic      Atomic             Coordinates (Angstroms)
 Number     Number       Type             X           Y           Z
 ---------------------------------------------------------------------
      1          6           0       -1.266142    2.879836    0.017780
      2          6           0       -2.570984    2.398779    0.015810
      3          6           0       -2.810311    1.022557    0.014955
      4          6           0       -0.192117    1.985190    0.018903
      5          6           0       -0.433252    0.601534    0.018058
      6          6           0       -1.745229    0.126651    0.016075
      7          6           0        1.196781    2.521457    0.020963
      8          6           0        2.316540    1.507618    0.022145
      9          6           0        2.067617    0.176651    0.021318
     10          6           0        0.706658   -0.367632    0.019290
     11          8           0        1.440569    3.710393    0.021881
     12          8           0        0.514371   -1.575868    0.018484
     13          1           0       -1.058193    3.942743    0.018461
     14          1           0       -1.907588   -0.944186    0.015453
     15          8           0        3.516503    2.090252    0.023989
     16          6           0        4.689805    1.263083    0.025239
     17          6           0        5.885053    2.176132    0.027091
     18          6           0        7.145843    1.756595    0.028779
     19          1           0       -3.402754    3.093886    0.014933
     20          1           0       -3.828526    0.650348    0.013421
     21          1           0        2.856732   -0.563607    0.022119
     22          1           0        4.676113    0.620684   -0.863265
     23          1           0        4.673807    0.620088    0.913272
     24          1           0        5.648656    3.235870    0.026948
     25          1           0        7.407045    0.702270    0.028963
     26          1           0        7.969112    2.460385    0.030047
 ---------------------------------------------------------------------

 SCF Done:  E(UB3LYP) =  -727.232127169     A.U. after    2 cycles

 Alpha  occ. eigenvalues --  -19.19252 -19.13715 -19.12257 -10.28781 -10.27755
 Alpha  occ. eigenvalues --  -10.27689 -10.25811 -10.21119 -10.20946 -10.20363
 Alpha  occ. eigenvalues --  -10.20276 -10.20183 -10.20018 -10.19965 -10.19726
 Alpha  occ. eigenvalues --  -10.18385  -1.11566  -1.06768  -1.05501  -0.89322
 Alpha  occ. eigenvalues --   -0.84392  -0.81449  -0.78145  -0.77570  -0.73644
 Alpha  occ. eigenvalues --   -0.68780  -0.65578  -0.63413  -0.60089  -0.58548
 Alpha  occ. eigenvalues --   -0.56387  -0.54962  -0.52701  -0.51098  -0.49810
 Alpha  occ. eigenvalues --   -0.48176  -0.47441  -0.45843  -0.45387  -0.45323
 Alpha  occ. eigenvalues --   -0.44344  -0.44084  -0.43495  -0.41656  -0.39486
 Alpha  occ. eigenvalues --   -0.39311  -0.38612  -0.37366  -0.37019  -0.36398
 Alpha  occ. eigenvalues --   -0.28994  -0.28590  -0.28384  -0.28095  -0.27307
 Alpha  occ. eigenvalues --   -0.27031
 Alpha virt. eigenvalues --   -0.12036  -0.05782  -0.03071  -0.02443  -0.01193
 Alpha virt. eigenvalues --   -0.00775   0.00566   0.00970   0.01419   0.02364
 Alpha virt. eigenvalues --    0.02733   0.02835   0.03220   0.03980   0.04991

  Beta  occ. eigenvalues --  -19.19252 -19.13715 -19.12257 -10.28781 -10.27755
  Beta  occ. eigenvalues --  -10.27689 -10.25811 -10.21119 -10.20946 -10.20363
  Beta  occ. eigenvalues --  -10.20276 -10.20183 -10.20018 -10.19965 -10.19726
  Beta  occ. eigenvalues --  -10.18385  -1.11566  -1.06768  -1.05501  -0.89322
  Beta  occ. eigenvalues --   -0.84392  -0.81449  -0.78145  -0.77570  -0.73644
  Beta  occ. eigenvalues --   -0.68780  -0.65578  -0.63413  -0.60089  -0.58548
  Beta  occ. eigenvalues --   -0.56387  -0.54962  -0.52701  -0.51098  -0.49810
  Beta  occ. eigenvalues --   -0.48176  -0.47441  -0.45843  -0.45387  -0.45323
  Beta  occ. eigenvalues --   -0.44344  -0.44084  -0.43495  -0.41656  -0.39486
  Beta  occ. eigenvalues --   -0.39311  -0.38612  -0.37366  -0.37019  -0.36398
  Beta  occ. eigenvalues --   -0.28994  -0.28590  -0.28384  -0.28095  -0.27307
  Beta  occ. eigenvalues --   -0.27031
  Beta virt. eigenvalues --   -0.12036  -0.05782  -0.03071  -0.02443  -0.01193
  Beta virt. eigenvalues --   -0.00775   0.00566   0.00970   0.01419   0.02364
  Beta virt. eigenvalues --    0.02733   0.02835   0.03220   0.03980   0.04991

 Mulliken charges and spin densities:
               1          2
     1  C    0.228864   0.000000
     2  C   -0.364005  -0.000000
     3  C   -0.261912  -0.000000
     4  C   -0.008057   0.000000
     5  C    0.620596  -0.000000
     6  C    0.187403   0.000000
     7  C   -0.575486   0.000000
     8  C   -0.254016  -0.000000
     9  C    0.251372   0.000000
    10  C   -0.256983   0.000000
    11  O   -0.207394   0.000000
    12  O   -0.233205   0.000000
    13  H    0.179329  -0.000000
    14  H    0.180394   0.000000
    15  O   -0.062524   0.000000
    16  C   -0.559039  -0.000000
    17  C    0.265811  -0.000000
    18  C   -0.585152   0.000000
    19  H    0.177623  -0.000000
    20  H    0.179386  -0.000000
    21  H    0.223393   0.000000
    22  H    0.181269  -0.000000
    23  H    0.181268  -0.000000
    24  H    0.216709  -0.000000
    25  H    0.132480   0.000000
    26  H    0.161876  -0.000000
 Sum of Mulliken charges =  -0.00000  -0.00000

 Dipole moment (field-independent basis, Debye):
    X=              0.2083    Y=              0.1028    Z=              0.0002  Tot=              0.2323
 Quadrupole moment (field-independent basis, Debye-Ang):
   XX=            -66.7126   YY=           -106.4036   ZZ=            -95.3438
   XY=             -6.8141   XZ=              0.0398   YZ=             -0.0133

  Exact polarizability: 236.400   7.275 177.150   0.210   0.044  85.550
 Approx polarizability: 310.717  23.717 349.065   0.254   0.116 133.412

 ******    1 imaginary frequencies (negative Signs) ******

                      1                      2                      3
                      A                      A                      A
 Frequencies --   -111.6552                31.1538                72.8058
 Red. masses --      1.9587                 5.9726                 4.9400
 Frc consts  --      0.0144                 0.0034                 0.0154
 IR Inten    --      1.6387                 2.6375                 4.5700

                      4                      5                      6
                      A                      A                      A
 Frequencies --     85.7677               117.3563               121.2436
 Red. masses --      4.6213                 3.9043                 2.5039
 Frc consts  --      0.0200                 0.0317                 0.0217
 IR Inten    --      0.5999                 0.1316                 0.5919

                      7                      8                      9
                      A                      A                      A
 Frequencies --    164.9364               200.2942               250.1001
 Red. masses --      8.0425                 4.8050                 4.6705
 Frc consts  --      0.1289                 0.1136                 0.1721
 IR Inten    --      3.5264                 0.4509                 1.0496

                     10                     11                     12
                      A                      A                      A
 Frequencies --    260.1477               289.8139               378.2104
 Red. masses --      5.4696                 4.9038                10.7880
 Frc consts  --      0.2181                 0.2427                 0.9092
 IR Inten    --      1.7918                 1.3439                18.2827

                     13                     14                     15
                      A                      A                      A
 Frequencies --    407.7709               449.3662               456.1721
 Red. masses --      3.5430                 4.6751                 6.1901
 Frc consts  --      0.3471                 0.5562                 0.7589
 IR Inten    --      0.0973                 2.2631                 3.3303

                     16                     17                     18
                      A                      A                      A
 Frequencies --    458.2319               473.7162               498.2314
 Red. masses --      8.0278                 4.9497                 3.8003
 Frc consts  --      0.9932                 0.6544                 0.5558
 IR Inten    --      7.2216                 1.1808                 4.4037

                     19                     20                     21
                      A                      A                      A
 Frequencies --    565.2274               569.7899               674.6934
 Red. masses --      7.9163                 1.3821                 6.9907
 Frc consts  --      1.4901                 0.2644                 1.8749
 IR Inten    --      4.1323                12.8223                 2.7224

                     22                     23                     24
                      A                      A                      A
 Frequencies --    679.8395               708.1527               717.2311
 Red. masses --      3.9277                 6.2807                 6.7509
 Frc consts  --      1.0695                 1.8557                 2.0461
 IR Inten    --      2.8074                 4.4980                 1.5647

                     25                     26                     27
                      A                      A                      A
 Frequencies --    736.6569               783.8653               817.5269
 Red. masses --      2.8262                 2.0671                 3.2654
 Frc consts  --      0.9036                 0.7483                 1.2859
 IR Inten    --     29.0578                33.7294                15.1884

                     28                     29                     30
                      A                      A                      A
 Frequencies --    829.3251               865.2282               914.5621
 Red. masses --      4.4821                 1.5378                 1.3516
 Frc consts  --      1.8163                 0.6783                 0.6661
 IR Inten    --      5.3166                20.7287                 0.0111

                     31                     32                     33
                      A                      A                      A
 Frequencies --    926.5622               948.0040               963.8523
 Red. masses --      1.8720                 1.3218                 4.6182
 Frc consts  --      0.9469                 0.6999                 2.5278
 IR Inten    --      3.7711                48.2564                17.9160

                     34                     35                     36
                      A                      A                      A
 Frequencies --   1000.8913              1010.7140              1017.5730
 Red. masses --      1.3817                 1.1253                 1.3233
 Frc consts  --      0.8155                 0.6773                 0.8073
 IR Inten    --      1.5258                 9.1668                 0.0226

                     37                     38                     39
                      A                      A                      A
 Frequencies --   1037.7664              1044.2045              1065.6971
 Red. masses --      1.5551                 3.6426                 2.9534
 Frc consts  --      0.9868                 2.3401                 1.9762
 IR Inten    --     13.2688                79.8144                64.7400

                     40                     41                     42
                      A                      A                      A
 Frequencies --   1102.0098              1138.8696              1152.1118
 Red. masses --      2.9185                 1.8299                 2.0887
 Frc consts  --      2.0882                 1.3984                 1.6335
 IR Inten    --     30.3640                11.9411                15.5206

                     43                     44                     45
                      A                      A                      A
 Frequencies --   1183.2545              1233.3119              1254.1328
 Red. masses --      1.1341                 2.7178                 1.0677
 Frc consts  --      0.9355                 2.4357                 0.9895
 IR Inten    --     18.3005               215.0121                 2.2487

                     46                     47                     48
                      A                      A                      A
 Frequencies --   1266.5792              1282.8661              1312.0855
 Red. masses --      2.5371                 2.0360                 1.3193
 Frc consts  --      2.3980                 1.9742                 1.3382
 IR Inten    --    427.1397                72.8521                13.6788

                     49                     50                     51
                      A                      A                      A
 Frequencies --   1323.3786              1356.8115              1362.9896
 Red. masses --      3.8383                 2.6677                 3.1958
 Frc consts  --      3.9606                 2.8935                 3.4980
 IR Inten    --     73.0316                51.5927                16.9320

                     52                     53                     54
                      A                      A                      A
 Frequencies --   1392.5276              1458.1522              1482.7954
 Red. masses --      1.7422                 1.2364                 2.3749
 Frc consts  --      1.9905                 1.5488                 3.0765
 IR Inten    --      1.9742                14.6403                 0.4222

                     55                     56                     57
                      A                      A                      A
 Frequencies --   1497.0757              1505.6927              1611.2046
 Red. masses --      1.1075                 2.5443                 6.5657
 Frc consts  --      1.4625                 3.3985                10.0423
 IR Inten    --     28.1223                 4.0081                50.2941

                     58                     59                     60
                      A                      A                      A
 Frequencies --   1629.3900              1647.3185              1705.9150
 Red. masses --      5.9013                 8.0566                 5.2132
 Frc consts  --      9.2310                12.8813                 8.9387
 IR Inten    --     51.2783               320.7624                56.4374

                     61                     62                     63
                      A                      A                      A
 Frequencies --   1707.9379              1746.1015              3002.5101
 Red. masses --      9.2181                12.8368                 1.0550
 Frc consts  --     15.8430                23.0593                 5.6037
 IR Inten    --    174.4231               219.7192                 9.6067

                     64                     65                     66
                      A                      A                      A
 Frequencies --   3039.2000              3128.8746              3163.6564
 Red. masses --      1.1075                 1.0616                 1.0918
 Frc consts  --      6.0269                 6.1236                 6.4381
 IR Inten    --     14.3780                 6.9785                 0.4959

                     67                     68                     69
                      A                      A                      A
 Frequencies --   3170.6472              3184.8124              3199.0882
 Red. masses --      1.0870                 1.0916                 1.0926
 Frc consts  --      6.4381                 6.5232                 6.5881
 IR Inten    --      3.2435                 8.8692                 0.3845

                     70                     71                     72
                      A                      A                      A
 Frequencies --   3201.8160              3205.7820              3218.0265
 Red. masses --      1.0952                 1.0907                 1.1138
 Frc consts  --      6.6153                 6.6042                 6.7955
 IR Inten    --     11.2131                 5.0304                 8.3796

 - Thermochemistry -
 -------------------
 Temperature   298.150 Kelvin.  Pressure   1.00000 Atm.
 Atom     1 has atomic number  6 and mass  12.00000

 Molecular mass:   214.06299 amu.
 Principal axes and moments of inertia in atomic units:
                           1         2         3
     Eigenvalues --  1441.660466249.333107679.63476
           X            0.99665  -0.08178  -0.00135
           Y            0.08178   0.99665  -0.00038
           Z            0.00138   0.00027   1.00000
 This molecule is an asymmetric top.
 Rotational symmetry number  1.
 Warning -- assumption of classical behavior for rotation
           may cause significant error
 Rotational temperatures (Kelvin)      0.06008     0.01386     0.01128
 Rotational constants (GHZ):           1.25185     0.28879     0.23500
    1 imaginary frequencies ignored.
 Zero-point vibrational energy     517143.3 (Joules/Mol)
                                  123.60021 (Kcal/Mol)
 Warning -- explicit consideration of  19 degrees of freedom as
           vibrations may cause significant error
 Vibrational temperatures:     44.82   104.75   123.40   168.85   174.44
          (Kelvin)            237.31   288.18   359.84   374.29   416.98
                              544.16   586.69   646.54   656.33   659.29
                              681.57   716.84   813.24   819.80   970.73
                              978.14  1018.87  1031.94  1059.88  1127.81
                             1176.24  1193.21  1244.87  1315.85  1333.12
                             1363.97  1386.77  1440.06  1454.19  1464.06
                             1493.11  1502.38  1533.30  1585.55  1638.58
                             1657.63  1702.44  1774.46  1804.42  1822.32
                             1845.76  1887.80  1904.05  1952.15  1961.04
                             2003.54  2097.96  2133.41  2153.96  2166.36
                             2318.16  2344.33  2370.12  2454.43  2457.34
                             2512.25  4319.94  4372.73  4501.75  4551.80
                             4561.85  4582.23  4602.77  4606.70  4612.41
                             4630.02

 Zero-point correction=                           0.196969 (Hartree/Particle)
 Thermal correction to Energy=                    0.209885
 Thermal correction to Enthalpy=                  0.210829
 Thermal correction to Gibbs Free Energy=         0.156466
 Sum of electronic and zero-point Energies=           -727.035158
 Sum of electronic and thermal Energies=              -727.022243
 Sum of electronic and thermal Enthalpies=            -727.021298
 Sum of electronic and thermal Free Energies=         -727.075661

                     E (Thermal)             CV                S
                      KCal/Mol        Cal/Mol-Kelvin    Cal/Mol-Kelvin
 Total                  131.705             49.753            114.415
 Electronic               0.000              0.000              0.000
 Translational            0.889              2.981             41.987
 Rotational               0.889              2.981             32.603
 Vibrational            129.927             43.791             39.825
 Vibration     1          0.594              1.983              5.755
 Vibration     2          0.599              1.967              4.076
 Vibration     3          0.601              1.959              3.754
 Vibration     4          0.608              1.935              3.143
 Vibration     5          0.609              1.931              3.080
 Vibration     6          0.623              1.886              2.492
 Vibration     7          0.638              1.839              2.130
 Vibration     8          0.663              1.763              1.730
 Vibration     9          0.668              1.746              1.661
 Vibration    10          0.686              1.693              1.475
 Vibration    11          0.748              1.517              1.046
 Vibration    12          0.772              1.453              0.935
 Vibration    13          0.808              1.362              0.798
 Vibration    14          0.814              1.347              0.777
 Vibration    15          0.816              1.343              0.771
 Vibration    16          0.831              1.308              0.727
 Vibration    17          0.854              1.254              0.663
 Vibration    18          0.921              1.106              0.513
 Vibration    19          0.926              1.097              0.505

 Optimization completed.
    -- Stationary point found.
 Normal termination of Gaussian 16 at Tue Dec 26 21:23:07 2023.
