 Gaussian 16, Revision A.03,
 Gaussian 16:  ES64L-G16RevA.03 25-Dec-2016

 ----------------------------------------------------------------
 #P UB3LYP/6-311++G(d,p) SCRF=(PCM,Solvent=n,n-DiMethylFormamide)
 ----------------------------------------------------------------

 -------
 Reduced
 -------
 Symbolic Z-matrix:
 Charge = -2 Multiplicity = 1

                         Standard orientation:
 ---------------------------------------------------------------------
 Center     Atomic      Atomic             Coordinates (Angstroms)
 Number     Number       Type             X           Y           Z
 ---------------------------------------------------------------------
      1          6           0        0.403528    1.558013   -0.285201
      2          6           0       -0.939399    1.088750   -0.293571
      3          6           0       -1.308825   -0.258087   -0.316425
      4          6           0       -0.336508   -1.316513   -0.423544
      5          6           0        1.378082    0.499178   -0.333931
      6          6           0        1.002342   -0.844997   -0.440976
      7          8           0        0.781585    2.796268   -0.277576
      8          8           0       -0.725090   -2.549588   -0.518835
      9          7           0        2.733017    0.972240   -0.418634
     10          7           0       -2.664947   -0.723934   -0.359116
     11          6           0        3.578904    1.014067    0.805261
     12          6           0        2.975330    0.341341    2.044203
     13          6           0        4.988381    0.443270    0.532248
     14          6           0       -3.468546   -0.571161    0.867400
     15          6           0       -3.307371   -1.734403    1.856476
     16          6           0       -4.954086   -0.330363    0.531043
     17          7           0        5.137829   -0.053170   -0.714655
     18          7           0       -5.170429   -0.095968   -0.784338
     19          6           0       -6.438627    0.328863   -1.320247
     20          6           0        6.300692   -0.785030   -1.146992
     21          8           0        5.886992    0.469945    1.380008
     22          8           0       -5.844143   -0.329306    1.386159
     23         17           0       -2.226718    2.343311   -0.316138
     24         17           0        2.280011   -2.093773   -0.631155
     25          1           0        2.581922    1.950917   -0.683146
     26          1           0       -2.530900   -1.727424   -0.546670
     27          1           0        3.754760    2.067406    1.062960
     28          1           0        3.675037    0.432739    2.878555
     29          1           0        2.775096   -0.715601    1.860224
     30          1           0        2.031215    0.825473    2.298915
     31          1           0       -3.151058    0.352306    1.360485
     32          1           0       -2.254050   -1.834708    2.124456
     33          1           0       -3.623780   -2.676950    1.397975
     34          1           0       -3.908644   -1.565845    2.753803
     35          1           0        4.256429   -0.056948   -1.234363
     36          1           0       -4.298780   -0.071533   -1.319155
     37          1           0       -7.208904    0.139666   -0.570242
     38          1           0       -6.682783   -0.226714   -2.232843
     39          1           0       -6.442162    1.400722   -1.559089
     40          1           0        6.639844   -0.439278   -2.130671
     41          1           0        6.096255   -1.861489   -1.213686
     42          1           0        7.098120   -0.625189   -0.418855
 ---------------------------------------------------------------------

 SCF Done:  E(UB3LYP) =  -1985.28247147     A.U. after   16 cycles

 The electronic state is 1-A.
 Alpha  occ. eigenvalues -- -101.52934-101.52828 -19.08576 -19.08410 -19.02993
 Alpha  occ. eigenvalues --  -19.02899 -14.32556 -14.32346 -14.29518 -14.29291
 Alpha  occ. eigenvalues --  -10.26276 -10.26033 -10.20294 -10.20237 -10.19351
 Alpha  occ. eigenvalues --  -10.19264 -10.18907 -10.18875 -10.18604 -10.18585
 Alpha  occ. eigenvalues --  -10.17376 -10.16977 -10.15494 -10.15373  -9.44386
 Alpha  occ. eigenvalues --   -9.44289  -7.20780  -7.20680  -7.19921  -7.19863
 Alpha  occ. eigenvalues --   -7.19826  -7.19763  -1.03252  -1.03038  -0.95657
 Alpha  occ. eigenvalues --   -0.94992  -0.92111  -0.91894  -0.89476  -0.89000
 Alpha  occ. eigenvalues --   -0.83798  -0.82917  -0.77590  -0.75575  -0.73718
 Alpha  occ. eigenvalues --   -0.70763  -0.70624  -0.67146  -0.65504  -0.62882
 Alpha  occ. eigenvalues --   -0.61296  -0.56579  -0.56240  -0.55136  -0.54116
 Alpha  occ. eigenvalues --   -0.51614  -0.50354  -0.49642  -0.47509  -0.47000
 Alpha  occ. eigenvalues --   -0.46496  -0.45619  -0.44388  -0.43982  -0.43512
 Alpha  occ. eigenvalues --   -0.42556  -0.42387  -0.41237  -0.40970  -0.40210
 Alpha  occ. eigenvalues --   -0.39067  -0.38736  -0.38535  -0.38428  -0.38362
 Alpha  occ. eigenvalues --   -0.37780  -0.36986  -0.36888  -0.36146  -0.36050
 Alpha  occ. eigenvalues --   -0.35017  -0.34407  -0.33882  -0.33398  -0.31887
 Alpha  occ. eigenvalues --   -0.30644  -0.29728  -0.29454  -0.28042  -0.27704
 Alpha  occ. eigenvalues --   -0.25453  -0.25213  -0.24605  -0.24287  -0.21941
 Alpha  occ. eigenvalues --   -0.21791  -0.21173  -0.19205  -0.12780
 Alpha virt. eigenvalues --   -0.00806  -0.00034   0.00765   0.00936   0.01329
 Alpha virt. eigenvalues --    0.01778   0.01887   0.02340   0.02629   0.02714
 Alpha virt. eigenvalues --    0.03048   0.03322   0.03978   0.04420   0.04494

  Beta  occ. eigenvalues -- -101.52934-101.52828 -19.08576 -19.08410 -19.02993
  Beta  occ. eigenvalues --  -19.02899 -14.32556 -14.32346 -14.29518 -14.29291
  Beta  occ. eigenvalues --  -10.26276 -10.26033 -10.20294 -10.20237 -10.19351
  Beta  occ. eigenvalues --  -10.19264 -10.18907 -10.18875 -10.18604 -10.18585
  Beta  occ. eigenvalues --  -10.17376 -10.16977 -10.15494 -10.15373  -9.44386
  Beta  occ. eigenvalues --   -9.44289  -7.20780  -7.20680  -7.19921  -7.19863
  Beta  occ. eigenvalues --   -7.19826  -7.19763  -1.03252  -1.03038  -0.95657
  Beta  occ. eigenvalues --   -0.94992  -0.92111  -0.91894  -0.89476  -0.89000
  Beta  occ. eigenvalues --   -0.83798  -0.82917  -0.77590  -0.75575  -0.73718
  Beta  occ. eigenvalues --   -0.70763  -0.70624  -0.67146  -0.65504  -0.62882
  Beta  occ. eigenvalues --   -0.61296  -0.56579  -0.56240  -0.55136  -0.54116
  Beta  occ. eigenvalues --   -0.51614  -0.50354  -0.49642  -0.47509  -0.47000
  Beta  occ. eigenvalues --   -0.46496  -0.45619  -0.44388  -0.43982  -0.43512
  Beta  occ. eigenvalues --   -0.42556  -0.42387  -0.41237  -0.40970  -0.40210
  Beta  occ. eigenvalues --   -0.39067  -0.38736  -0.38535  -0.38428  -0.38362
  Beta  occ. eigenvalues --   -0.37780  -0.36986  -0.36888  -0.36146  -0.36050
  Beta  occ. eigenvalues --   -0.35017  -0.34407  -0.33882  -0.33398  -0.31887
  Beta  occ. eigenvalues --   -0.30644  -0.29728  -0.29454  -0.28042  -0.27704
  Beta  occ. eigenvalues --   -0.25453  -0.25213  -0.24605  -0.24287  -0.21941
  Beta  occ. eigenvalues --   -0.21791  -0.21173  -0.19205  -0.12780
  Beta virt. eigenvalues --   -0.00806  -0.00034   0.00765   0.00936   0.01329
  Beta virt. eigenvalues --    0.01778   0.01887   0.02340   0.02629   0.02714
  Beta virt. eigenvalues --    0.03048   0.03322   0.03978   0.04420   0.04494

 Mulliken charges and spin densities:
               1          2
     1  C   -0.738788  -0.000000
     2  C    0.095153   0.000000
     3  C   -0.236211   0.000000
     4  C   -0.693071   0.000000
     5  C   -0.182610  -0.000000
     6  C    0.235925  -0.000000
     7  O   -0.620078  -0.000000
     8  O   -0.617426  -0.000000
     9  N   -0.116549   0.000000
    10  N    0.090480  -0.000000
    11  C    0.137669   0.000000
    12  C   -0.545957   0.000000
    13  C   -0.186577  -0.000000
    14  C    0.050081   0.000000
    15  C   -0.627137  -0.000000
    16  C   -0.125319   0.000000
    17  N   -0.189371  -0.000000
    18  N   -0.247741   0.000000
    19  C   -0.283049   0.000000
    20  C   -0.307600  -0.000000
    21  O   -0.487830   0.000000
    22  O   -0.479938  -0.000000
    23  Cl   0.291923  -0.000000
    24  Cl   0.292204  -0.000000
    25  H    0.270658   0.000000
    26  H    0.255998  -0.000000
    27  H    0.203557  -0.000000
    28  H    0.167336   0.000000
    29  H    0.115592  -0.000000
    30  H    0.165772   0.000000
    31  H    0.151907   0.000000
    32  H    0.179431   0.000000
    33  H    0.164821   0.000000
    34  H    0.155869  -0.000000
    35  H    0.329841   0.000000
    36  H    0.351670  -0.000000
    37  H    0.166833  -0.000000
    38  H    0.159205  -0.000000
    39  H    0.164796   0.000000
    40  H    0.161082   0.000000
    41  H    0.167517  -0.000000
    42  H    0.159930  -0.000000
 Sum of Mulliken charges =  -2.00000   0.00000

 Dipole moment (field-independent basis, Debye):
    X=             -0.8231    Y=             -1.4478    Z=             -2.7255  Tot=              3.1941
 Quadrupole moment (field-independent basis, Debye-Ang):
   XX=           -256.9171   YY=           -220.4208   ZZ=           -172.4475
   XY=            -11.5442   XZ=              1.1372   YZ=             -2.2470

 Normal termination of Gaussian 16 at Wed Jan 24 23:01:46 2024.
