 Gaussian 16, Revision A.03,
 Gaussian 16:  ES64L-G16RevA.03 25-Dec-2016

 --------------------------------------
 #P UB3LYP/6-311++G(d,p) nosym opt freq
 --------------------------------------

 -------
 Reduced
 -------
 Symbolic Z-matrix:
 Charge = -2 Multiplicity = 1

 SCF Done:  E(UB3LYP) =  -649.732403602     A.U. after   40 cycles
 SCF Done:  E(UB3LYP) =  -649.761042646     A.U. after   31 cycles
 SCF Done:  E(UB3LYP) =  -649.767694911     A.U. after   31 cycles
 SCF Done:  E(UB3LYP) =  -649.770604844     A.U. after   27 cycles
 SCF Done:  E(UB3LYP) =  -649.771066278     A.U. after   27 cycles
 SCF Done:  E(UB3LYP) =  -649.771157285     A.U. after   27 cycles
 SCF Done:  E(UB3LYP) =  -649.771240017     A.U. after   29 cycles
 SCF Done:  E(UB3LYP) =  -649.771277941     A.U. after   25 cycles
 SCF Done:  E(UB3LYP) =  -649.771302468     A.U. after   27 cycles
 SCF Done:  E(UB3LYP) =  -649.771314046     A.U. after   24 cycles
 SCF Done:  E(UB3LYP) =  -649.771315246     A.U. after   22 cycles
 SCF Done:  E(UB3LYP) =  -649.771315345     A.U. after   19 cycles
 Optimization completed.
    -- Stationary point found.
 Normal termination of Gaussian 16 at Tue Dec 26 20:56:49 2023.

 ----------------------------------------------------------------------
 #P Geom=AllCheck Guess=TCheck SCRF=Check GenChk UB3LYP/6-311++G(d,p) F
 req
 ----------------------------------------------------------------------

 Structure from the checkpoint file:  "258-an.chk"
 -------
 Reduced
 -------
 Charge = -2 Multiplicity = 1

                          Input orientation:
 ---------------------------------------------------------------------
 Center     Atomic      Atomic             Coordinates (Angstroms)
 Number     Number       Type             X           Y           Z
 ---------------------------------------------------------------------
      1          6           0        3.321933   -0.934413   -0.093910
      2          8           0        1.945773   -1.161458    0.090232
      3          6           0        1.067735   -0.117705   -0.084163
      4          6           0        1.529732    1.141231   -0.455653
      5          6           0        0.619099    2.207333   -0.641628
      6          6           0       -0.724834    2.003368   -0.439252
      7          6           0       -1.231089    0.740458   -0.048015
      8          6           0       -2.679658    0.636395    0.142223
      9          8           0       -3.470777    1.639523   -0.015928
     10          6           0       -3.131378   -0.663515    0.501674
     11          6           0       -2.277452   -1.746901    0.667078
     12          6           0       -0.852071   -1.708092    0.506740
     13          8           0       -0.145120   -2.754432    0.692598
     14          6           0       -0.327130   -0.383296    0.127389
     15          1           0        3.821414   -1.876854    0.143817
     16          1           0        3.571860   -0.655720   -1.129260
     17          1           0        3.718941   -0.152685    0.572141
     18          1           0        2.585253    1.313041   -0.621942
     19          1           0        0.997859    3.183501   -0.939597
     20          1           0       -1.454395    2.795727   -0.567230
     21          1           0       -4.204933   -0.785672    0.646956
     22          1           0       -2.680763   -2.719834    0.945730
 ---------------------------------------------------------------------

 SCF Done:  E(UB3LYP) =  -649.771315345     A.U. after    3 cycles

 Alpha  occ. eigenvalues --  -18.91039 -18.78454 -18.77936 -10.00083  -9.98977
 Alpha  occ. eigenvalues --   -9.94525  -9.94100  -9.92879  -9.92347  -9.91549
 Alpha  occ. eigenvalues --   -9.91323  -9.90975  -9.89530  -9.89350  -0.82745
 Alpha  occ. eigenvalues --   -0.69944  -0.69605  -0.59715  -0.53428  -0.51493
 Alpha  occ. eigenvalues --   -0.48090  -0.45751  -0.40786  -0.35845  -0.35403
 Alpha  occ. eigenvalues --   -0.31367  -0.26610  -0.24852  -0.24038  -0.23658
 Alpha  occ. eigenvalues --   -0.21854  -0.19310  -0.18098  -0.16410  -0.14833
 Alpha  occ. eigenvalues --   -0.14570  -0.12531  -0.11681  -0.10609  -0.09927
 Alpha  occ. eigenvalues --   -0.08521  -0.08316  -0.08293  -0.06544   0.01031
 Alpha  occ. eigenvalues --    0.01421   0.02213   0.04118   0.05193   0.13318
 Alpha virt. eigenvalues --    0.14823   0.16666   0.18240   0.18618   0.18836
 Alpha virt. eigenvalues --    0.20484   0.20866   0.22516   0.22967   0.23603
 Alpha virt. eigenvalues --    0.23684   0.26671   0.26926   0.27859   0.27929

  Beta  occ. eigenvalues --  -18.91039 -18.78454 -18.77936 -10.00083  -9.98977
  Beta  occ. eigenvalues --   -9.94525  -9.94100  -9.92879  -9.92347  -9.91549
  Beta  occ. eigenvalues --   -9.91323  -9.90975  -9.89530  -9.89350  -0.82745
  Beta  occ. eigenvalues --   -0.69944  -0.69605  -0.59715  -0.53428  -0.51493
  Beta  occ. eigenvalues --   -0.48090  -0.45751  -0.40786  -0.35845  -0.35403
  Beta  occ. eigenvalues --   -0.31367  -0.26610  -0.24852  -0.24038  -0.23658
  Beta  occ. eigenvalues --   -0.21854  -0.19310  -0.18098  -0.16410  -0.14833
  Beta  occ. eigenvalues --   -0.14570  -0.12531  -0.11681  -0.10609  -0.09927
  Beta  occ. eigenvalues --   -0.08521  -0.08316  -0.08293  -0.06544   0.01031
  Beta  occ. eigenvalues --    0.01421   0.02213   0.04118   0.05193   0.13318
  Beta virt. eigenvalues --    0.14823   0.16666   0.18240   0.18618   0.18836
  Beta virt. eigenvalues --    0.20484   0.20866   0.22516   0.22967   0.23603
  Beta virt. eigenvalues --    0.23684   0.26671   0.26926   0.27859   0.27929

 Mulliken charges and spin densities:
               1          2
     1  C    1.132453  -0.000000
     2  O   -0.144315   0.000000
     3  C   -0.156365   0.000000
     4  C   -0.208639   0.000000
     5  C    0.173601  -0.000000
     6  C    0.073542   0.000000
     7  C    0.182010  -0.000000
     8  C   -0.748678  -0.000000
     9  O   -0.526906  -0.000000
    10  C    0.018742   0.000000
    11  C    0.147889   0.000000
    12  C   -0.490453  -0.000000
    13  O   -0.496974  -0.000000
    14  C    0.245169  -0.000000
    15  H   -0.552142   0.000000
    16  H   -0.225340   0.000000
    17  H   -0.522177   0.000000
    18  H   -0.103707   0.000000
    19  H   -0.104336   0.000000
    20  H    0.151933   0.000000
    21  H    0.074141   0.000000
    22  H    0.080552  -0.000000
 Sum of Mulliken charges =  -2.00000  -0.00000

 Dipole moment (field-independent basis, Debye):
    X=              2.7038    Y=              2.9478    Z=             -1.7799  Tot=              4.3781
 Quadrupole moment (field-independent basis, Debye-Ang):
   XX=           -183.2803   YY=           -139.6150   ZZ=           -102.7581
   XY=             19.4356   XZ=              0.3170   YZ=              7.8732

  Exact polarizability:1412.528-192.1661092.783 -42.441-192.345 480.839
 Approx polarizability:7174.250-241.790 876.578-369.946-118.180 415.876

                      1                      2                      3
                      A                      A                      A
 Frequencies --     45.3074                90.4386                96.9623
 Red. masses --      4.9431                 4.1733                 5.7929
 Frc consts  --      0.0060                 0.0201                 0.0321
 IR Inten    --      1.3987                 2.8141                 9.5156

                      4                      5                      6
                      A                      A                      A
 Frequencies --    181.4624               197.9009               248.0941
 Red. masses --      3.9001                 4.7029                 2.6270
 Frc consts  --      0.0757                 0.1085                 0.0953
 IR Inten    --      6.4907                10.9882                 9.4999

                      7                      8                      9
                      A                      A                      A
 Frequencies --    299.7038               321.3908               335.8727
 Red. masses --      1.4169                 5.7080                 5.4478
 Frc consts  --      0.0750                 0.3474                 0.3621
 IR Inten    --     31.1736                 3.9297                17.7789

                     10                     11                     12
                      A                      A                      A
 Frequencies --    337.6632               370.1986               443.5400
 Red. masses --      5.9682                 7.8379                11.4772
 Frc consts  --      0.4009                 0.6329                 1.3303
 IR Inten    --      4.4654                 4.3105               631.1065

                     13                     14                     15
                      A                      A                      A
 Frequencies --    464.7283               509.3002               520.7950
 Red. masses --      4.2585                 5.8784                 7.1882
 Frc consts  --      0.5419                 0.8984                 1.1487
 IR Inten    --      9.4328                17.5532                76.7079

                     16                     17                     18
                      A                      A                      A
 Frequencies --    526.4499               619.8150               634.2343
 Red. masses --      3.3880                 4.9617                 2.6396
 Frc consts  --      0.5532                 1.1231                 0.6256
 IR Inten    --      7.2365                 2.2128                23.6581

                     19                     20                     21
                      A                      A                      A
 Frequencies --    654.6403               676.7080               733.1614
 Red. masses --      5.1049                 2.9222                 1.4746
 Frc consts  --      1.2890                 0.7884                 0.4670
 IR Inten    --     32.1044                 3.1553                15.4100

                     22                     23                     24
                      A                      A                      A
 Frequencies --    759.5838               786.7561               789.6025
 Red. masses --      6.2957                 2.3615                 5.5073
 Frc consts  --      2.1401                 0.8612                 2.0230
 IR Inten    --     32.0628                 2.0220                26.3385

                     25                     26                     27
                      A                      A                      A
 Frequencies --    803.5973               818.0523               883.6316
 Red. masses --      2.2104                 2.1910                 1.3369
 Frc consts  --      0.8410                 0.8639                 0.6150
 IR Inten    --     17.8640                21.1142                 9.3123

                     28                     29                     30
                      A                      A                      A
 Frequencies --    896.8531               947.9680              1034.7178
 Red. masses --      6.2796                 1.2508                 3.8599
 Frc consts  --      2.9759                 0.6623                 2.4348
 IR Inten    --     36.1124                 5.4037               107.5405

                     31                     32                     33
                      A                      A                      A
 Frequencies --   1076.1631              1084.7515              1121.9635
 Red. masses --      3.7424                 2.0847                 1.9143
 Frc consts  --      2.5536                 1.4453                 1.4198
 IR Inten    --     55.1637               546.5290                69.5549

                     34                     35                     36
                      A                      A                      A
 Frequencies --   1152.7124              1159.3266              1162.4069
 Red. masses --      1.5768                 1.2913                 2.2836
 Frc consts  --      1.2344                 1.0226                 1.8179
 IR Inten    --    183.3401                33.9589                92.7714

                     37                     38                     39
                      A                      A                      A
 Frequencies --   1179.7923              1217.3541              1240.0732
 Red. masses --      1.4611                 1.9664                 3.9630
 Frc consts  --      1.1982                 1.7169                 3.5906
 IR Inten    --    454.9710               280.3083               102.8135

                     40                     41                     42
                      A                      A                      A
 Frequencies --   1299.6966              1317.8437              1391.9701
 Red. masses --      2.0298                 5.5231                 6.9733
 Frc consts  --      2.0202                 5.6515                 7.9607
 IR Inten    --     28.5232               651.6253               902.3819

                     43                     44                     45
                      A                      A                      A
 Frequencies --   1402.4266              1415.5889              1435.6049
 Red. masses --      4.0356                 5.7033                 2.3572
 Frc consts  --      4.6764                 6.7336                 2.8623
 IR Inten    --    200.0028               816.2352                47.6600

                     46                     47                     48
                      A                      A                      A
 Frequencies --   1461.4130              1480.2572              1489.9354
 Red. masses --      1.2457                 1.0547                 1.1042
 Frc consts  --      1.5674                 1.3616                 1.4442
 IR Inten    --    471.6034               402.7532               499.4359

                     49                     50                     51
                      A                      A                      A
 Frequencies --   1520.1140              1522.0823              1567.5547
 Red. masses --      4.6193                 3.7141                 6.0740
 Frc consts  --      6.2890                 5.0697                 8.7937
 IR Inten    --    657.0536               147.3567              3871.4839

                     52                     53                     54
                      A                      A                      A
 Frequencies --   1592.2276              2936.1163              2979.0710
 Red. masses --      5.2837                 1.0374                 1.1028
 Frc consts  --      7.8922                 5.2693                 5.7665
 IR Inten    --     74.1684                25.7011                 5.2805

                     55                     56                     57
                      A                      A                      A
 Frequencies --   3072.5423              3083.5235              3105.0933
 Red. masses --      1.0944                 1.0835                 1.0863
 Frc consts  --      6.0873                 6.0698                 6.1708
 IR Inten    --     88.8841               102.1138                96.6719

                     58                     59                     60
                      A                      A                      A
 Frequencies --   3112.3013              3167.5542              3181.1369
 Red. masses --      1.0918                 1.0906                 1.0894
 Frc consts  --      6.2308                 6.4471                 6.4951
 IR Inten    --    503.9309                28.4034                89.6158

 - Thermochemistry -
 -------------------
 Temperature   298.150 Kelvin.  Pressure   1.00000 Atm.
 Atom     1 has atomic number  6 and mass  12.00000

 Molecular mass:   188.04734 amu.
 Principal axes and moments of inertia in atomic units:
                           1         2         3
     Eigenvalues --  1606.254742863.184944457.74196
           X            0.97528   0.19553   0.10291
           Y           -0.21518   0.94630   0.24126
           Z           -0.05021  -0.25744   0.96499
 This molecule is an asymmetric top.
 Rotational symmetry number  1.
 Warning -- assumption of classical behavior for rotation
           may cause significant error
 Rotational temperatures (Kelvin)      0.05392     0.03025     0.01943
 Rotational constants (GHZ):           1.12357     0.63033     0.40486
 Zero-point vibrational energy     418440.1 (Joules/Mol)
                                  100.00959 (Kcal/Mol)
 Warning -- explicit consideration of  17 degrees of freedom as
           vibrations may cause significant error
 Vibrational temperatures:     65.19   130.12   139.51   261.08   284.74
          (Kelvin)            356.95   431.21   462.41   483.25   485.82
                              532.63   638.16   668.64   732.77   749.31
                              757.44   891.78   912.52   941.88   973.63
                             1054.86  1092.87  1131.97  1136.06  1156.20
                             1176.99  1271.35  1290.37  1363.91  1488.73
                             1548.36  1560.72  1614.26  1658.50  1668.01
                             1672.44  1697.46  1751.50  1784.19  1869.97
                             1896.08  2002.73  2017.78  2036.72  2065.52
                             2102.65  2129.76  2143.68  2187.10  2189.94
                             2255.36  2290.86  4224.42  4286.22  4420.70
                             4436.50  4467.54  4477.91  4557.40  4576.95

 Zero-point correction=                           0.159375 (Hartree/Particle)
 Thermal correction to Energy=                    0.170756
 Thermal correction to Enthalpy=                  0.171700
 Thermal correction to Gibbs Free Energy=         0.121791
 Sum of electronic and zero-point Energies=           -649.611940
 Sum of electronic and thermal Energies=              -649.600559
 Sum of electronic and thermal Enthalpies=            -649.599615
 Sum of electronic and thermal Free Energies=         -649.649524

                     E (Thermal)             CV                S
                      KCal/Mol        Cal/Mol-Kelvin    Cal/Mol-Kelvin
 Total                  107.151             44.680            105.043
 Electronic               0.000              0.000              0.000
 Translational            0.889              2.981             41.600
 Rotational               0.889              2.981             31.395
 Vibrational            105.374             38.718             32.047
 Vibration     1          0.595              1.979              5.012
 Vibration     2          0.602              1.956              3.651
 Vibration     3          0.603              1.951              3.514
 Vibration     4          0.630              1.865              2.313
 Vibration     5          0.637              1.843              2.153
 Vibration     6          0.662              1.766              1.744
 Vibration     7          0.692              1.674              1.419
 Vibration     8          0.707              1.633              1.303
 Vibration     9          0.717              1.604              1.232
 Vibration    10          0.718              1.600              1.223
 Vibration    11          0.742              1.533              1.079
 Vibration    12          0.803              1.375              0.816
 Vibration    13          0.822              1.328              0.752
 Vibration    14          0.864              1.229              0.635
 Vibration    15          0.876              1.204              0.608
 Vibration    16          0.881              1.191              0.595
 Vibration    17          0.980              0.990              0.417

 Optimization completed.
    -- Stationary point found.
 Normal termination of Gaussian 16 at Tue Dec 26 21:10:29 2023.
