 Gaussian 16, Revision A.03,
 Gaussian 16:  ES64L-G16RevA.03 25-Dec-2016

 ----------------------------------------------------------------------
 #P UB3LYP/6-311++G(d,p) nosym opt freq SCRF=(PCM,Solvent=n,n-DiMethylF
 ormamide)
 ----------------------------------------------------------------------

 --------
 Oxidized
 --------
 Symbolic Z-matrix:
 Charge =  0 Multiplicity = 1

 SCF Done:  E(UB3LYP) =  -1458.10478108     A.U. after   16 cycles
 SCF Done:  E(UB3LYP) =  -1458.10483304     A.U. after   12 cycles
 SCF Done:  E(UB3LYP) =  -1458.10483836     A.U. after   12 cycles
 SCF Done:  E(UB3LYP) =  -1458.10484991     A.U. after   11 cycles
 SCF Done:  E(UB3LYP) =  -1458.10485069     A.U. after   10 cycles
 SCF Done:  E(UB3LYP) =  -1458.10485107     A.U. after   10 cycles
 Optimization completed.
    -- Stationary point found.
 Normal termination of Gaussian 16 at Sat Feb 10 10:16:17 2024.

 ----------------------------------------------------------------------
 #P Geom=AllCheck Guess=TCheck SCRF=Check GenChk UB3LYP/6-311++G(d,p) F
 req
 ----------------------------------------------------------------------

 Structure from the checkpoint file:  "014.chk"
 --------
 Oxidized
 --------
 Charge =  0 Multiplicity = 1

                          Input orientation:
 ---------------------------------------------------------------------
 Center     Atomic      Atomic             Coordinates (Angstroms)
 Number     Number       Type             X           Y           Z
 ---------------------------------------------------------------------
      1          6           0       -1.573471   -1.549906   -0.643908
      2          6           0       -1.190726   -0.139285   -0.128249
      3          6           0       -1.560119    0.001551    1.370425
      4          6           0       -2.014487    0.894571   -0.918910
      5          6           0        0.312076    0.091866   -0.316639
      6          6           0        0.815399    1.075927   -1.083006
      7          6           0        2.252127    1.328821   -1.285376
      8          8           0        2.637336    2.241633   -1.995440
      9          6           0        3.218817    0.427885   -0.587657
     10          6           0        2.761494   -0.570754    0.188457
     11         17           0        3.813612   -1.654962    1.027020
     12          6           0        1.285637   -0.817587    0.381635
     13          8           0        0.930542   -1.736795    1.091006
     14         17           0        4.896430    0.748708   -0.840396
     15          1           0       -1.078364   -2.338538   -0.079513
     16          1           0       -2.654103   -1.684067   -0.546186
     17          1           0       -1.315506   -1.660060   -1.700924
     18          1           0       -1.065690   -0.749369    1.984587
     19          1           0       -2.640781   -0.119102    1.484059
     20          1           0       -1.291673    0.993298    1.745033
     21          1           0       -3.076478    0.696637   -0.757830
     22          1           0       -1.826890    0.833146   -1.994178
     23          1           0       -1.815380    1.917432   -0.588183
     24          1           0        0.180196    1.768953   -1.617419
 ---------------------------------------------------------------------

 SCF Done:  E(UB3LYP) =  -1458.10485107     A.U. after    1 cycles

 Alpha  occ. eigenvalues -- -101.58575-101.58512 -19.15672 -19.15408 -10.30935
 Alpha  occ. eigenvalues --  -10.30467 -10.28299 -10.28127 -10.23114 -10.21452
 Alpha  occ. eigenvalues --  -10.21026 -10.16585 -10.16399 -10.16396  -9.50019
 Alpha  occ. eigenvalues --   -9.49958  -7.26504  -7.26444  -7.25528  -7.25469
 Alpha  occ. eigenvalues --   -7.25410  -7.25348  -1.09316  -1.08648  -0.93780
 Alpha  occ. eigenvalues --   -0.88412  -0.87165  -0.82055  -0.76701  -0.71771
 Alpha  occ. eigenvalues --   -0.69480  -0.69421  -0.64246  -0.62536  -0.56502
 Alpha  occ. eigenvalues --   -0.55185  -0.51733  -0.49451  -0.48296  -0.47891
 Alpha  occ. eigenvalues --   -0.46568  -0.46297  -0.44924  -0.44408  -0.44141
 Alpha  occ. eigenvalues --   -0.42146  -0.40602  -0.38945  -0.38889  -0.37328
 Alpha  occ. eigenvalues --   -0.36887  -0.36295  -0.35393  -0.34879  -0.34452
 Alpha  occ. eigenvalues --   -0.33295  -0.31047  -0.30430  -0.29397  -0.28385
 Alpha virt. eigenvalues --   -0.14733  -0.04179  -0.02610  -0.01736  -0.00651
 Alpha virt. eigenvalues --    0.01186   0.01362   0.01834   0.01990   0.03143
 Alpha virt. eigenvalues --    0.03692   0.03850   0.03937   0.04982   0.05285

  Beta  occ. eigenvalues -- -101.58575-101.58512 -19.15672 -19.15408 -10.30935
  Beta  occ. eigenvalues --  -10.30467 -10.28299 -10.28127 -10.23114 -10.21452
  Beta  occ. eigenvalues --  -10.21026 -10.16585 -10.16399 -10.16396  -9.50019
  Beta  occ. eigenvalues --   -9.49958  -7.26504  -7.26444  -7.25528  -7.25469
  Beta  occ. eigenvalues --   -7.25410  -7.25348  -1.09316  -1.08648  -0.93780
  Beta  occ. eigenvalues --   -0.88412  -0.87165  -0.82055  -0.76701  -0.71771
  Beta  occ. eigenvalues --   -0.69480  -0.69421  -0.64246  -0.62536  -0.56502
  Beta  occ. eigenvalues --   -0.55185  -0.51733  -0.49451  -0.48296  -0.47891
  Beta  occ. eigenvalues --   -0.46568  -0.46297  -0.44924  -0.44408  -0.44141
  Beta  occ. eigenvalues --   -0.42146  -0.40602  -0.38945  -0.38889  -0.37328
  Beta  occ. eigenvalues --   -0.36887  -0.36295  -0.35393  -0.34879  -0.34452
  Beta  occ. eigenvalues --   -0.33295  -0.31047  -0.30430  -0.29397  -0.28385
  Beta virt. eigenvalues --   -0.14733  -0.04179  -0.02610  -0.01736  -0.00651
  Beta virt. eigenvalues --    0.01186   0.01362   0.01834   0.01990   0.03143
  Beta virt. eigenvalues --    0.03692   0.03850   0.03937   0.04982   0.05285

 Mulliken charges and spin densities:
               1          2
     1  C   -0.691452   0.000000
     2  C    0.402913   0.000000
     3  C   -0.691474  -0.000000
     4  C   -0.478664  -0.000000
     5  C    0.962741  -0.000000
     6  C   -0.290070   0.000000
     7  C   -0.942126  -0.000000
     8  O   -0.228222  -0.000000
     9  C    0.907030  -0.000000
    10  C   -0.197772   0.000000
    11  Cl   0.468346  -0.000000
    12  C   -1.207521   0.000000
    13  O   -0.172545  -0.000000
    14  Cl   0.430354  -0.000000
    15  H    0.178278  -0.000000
    16  H    0.171340   0.000000
    17  H    0.151108  -0.000000
    18  H    0.178088  -0.000000
    19  H    0.171093   0.000000
    20  H    0.151023  -0.000000
    21  H    0.187317  -0.000000
    22  H    0.143973   0.000000
    23  H    0.144204   0.000000
    24  H    0.252039  -0.000000
 Sum of Mulliken charges =  -0.00000  -0.00000

 Dipole moment (field-independent basis, Debye):
    X=             -3.6269    Y=             -0.0049    Z=              0.0343  Tot=              3.6270
 Quadrupole moment (field-independent basis, Debye-Ang):
   XX=           -102.3871   YY=           -106.5684   ZZ=           -102.1038
   XY=             -5.6504   XZ=              5.3019   YZ=              8.7439

  Exact polarizability: 228.051  24.127 212.979 -19.040 -64.631 179.898
 Approx polarizability: 238.244  41.879 271.518 -32.735 -97.643 221.556

                      1                      2                      3
                      A                      A                      A
 Frequencies --     35.7991                58.5932                85.7160
 Red. masses --      5.7352                 5.3541                 8.2053
 Frc consts  --      0.0043                 0.0108                 0.0355
 IR Inten    --      2.9724                 0.1861                 0.0804

                      4                      5                      6
                      A                      A                      A
 Frequencies --    134.7773               167.9261               206.0633
 Red. masses --      4.1091                 5.2251                19.5455
 Frc consts  --      0.0440                 0.0868                 0.4890
 IR Inten    --      9.7579                 0.2967                 0.0299

                      7                      8                      9
                      A                      A                      A
 Frequencies --    206.6559               234.5195               245.0901
 Red. masses --      1.3201                 6.5270                 1.2068
 Frc consts  --      0.0332                 0.2115                 0.0427
 IR Inten    --      1.8990                 1.1072                 0.0878

                     10                     11                     12
                      A                      A                      A
 Frequencies --    252.0310               270.3946               278.7910
 Red. masses --      3.7113                 2.4395                 6.0210
 Frc consts  --      0.1389                 0.1051                 0.2757
 IR Inten    --      0.8572                 0.0006                 1.0911

                     13                     14                     15
                      A                      A                      A
 Frequencies --    314.2247               335.1032               364.2782
 Red. masses --      2.9994                 1.0632                14.4137
 Frc consts  --      0.1745                 0.0703                 1.1269
 IR Inten    --      0.5983                 0.0616                 4.7257

                     16                     17                     18
                      A                      A                      A
 Frequencies --    379.1320               379.5095               420.7427
 Red. masses --      2.6038                 5.9327                 2.8581
 Frc consts  --      0.2205                 0.5034                 0.2981
 IR Inten    --      1.7012                 7.8504                 1.8891

                     19                     20                     21
                      A                      A                      A
 Frequencies --    470.3403               471.0140               527.2628
 Red. masses --      7.0264                 6.7928                 3.7349
 Frc consts  --      0.9158                 0.8879                 0.6118
 IR Inten    --      0.5144                 0.2498                39.4539

                     22                     23                     24
                      A                      A                      A
 Frequencies --    539.9729               609.1732               697.6610
 Red. masses --      4.8320                 6.3109                 6.1118
 Frc consts  --      0.8301                 1.3798                 1.7527
 IR Inten    --      0.0007                56.0613                 4.8024

                     25                     26                     27
                      A                      A                      A
 Frequencies --    725.0477               759.0213               804.0421
 Red. masses --      6.1460                 5.8184                 8.9914
 Frc consts  --      1.9036                 1.9750                 3.4248
 IR Inten    --      9.8937                31.5571                 7.0291

                     28                     29                     30
                      A                      A                      A
 Frequencies --    844.0727               867.7607               916.5589
 Red. masses --      3.3986                 8.9078                 1.6483
 Frc consts  --      1.4266                 3.9520                 0.8159
 IR Inten    --     91.1491                33.6906                24.3165

                     31                     32                     33
                      A                      A                      A
 Frequencies --    935.5088               937.8672               966.6423
 Red. masses --      1.6270                 1.7473                 1.1970
 Frc consts  --      0.8389                 0.9055                 0.6590
 IR Inten    --     12.8424                 5.1429                 0.0280

                     34                     35                     36
                      A                      A                      A
 Frequencies --    972.9357              1039.8404              1046.6303
 Red. masses --      5.8638                 1.7239                 1.3836
 Frc consts  --      3.2704                 1.0983                 0.8930
 IR Inten    --     14.0357               136.1176                 0.3644

                     37                     38                     39
                      A                      A                      A
 Frequencies --   1076.6567              1186.2763              1213.7436
 Red. masses --      2.9670                 3.3318                 2.6741
 Frc consts  --      2.0264                 2.7625                 2.3211
 IR Inten    --    347.6159               109.1102                 5.2726

                     40                     41                     42
                      A                      A                      A
 Frequencies --   1222.5613              1258.8418              1283.9604
 Red. masses --      3.2823                 3.2702                 3.9107
 Frc consts  --      2.8904                 3.0532                 3.7985
 IR Inten    --     39.4449               136.1012                57.7329

                     43                     44                     45
                      A                      A                      A
 Frequencies --   1345.6939              1390.0584              1396.4031
 Red. masses --      1.8094                 1.1933                 1.2238
 Frc consts  --      1.9306                 1.3585                 1.4060
 IR Inten    --     23.7314                 9.3990                15.3330

                     46                     47                     48
                      A                      A                      A
 Frequencies --   1423.9582              1476.1015              1489.1114
 Red. masses --      1.2153                 1.0459                 1.0448
 Frc consts  --      1.4519                 1.3427                 1.3650
 IR Inten    --      4.4033                 0.0274                 0.1495

                     49                     50                     51
                      A                      A                      A
 Frequencies --   1489.9230              1493.2799              1503.3246
 Red. masses --      1.0459                 1.0542                 1.0481
 Frc consts  --      1.3680                 1.3850                 1.3956
 IR Inten    --      0.1599                24.7631                14.1563

                     52                     53                     54
                      A                      A                      A
 Frequencies --   1518.3692              1609.7560              1667.6769
 Red. masses --      1.0602                11.3146                 8.8055
 Frc consts  --      1.4400                17.2747                14.4288
 IR Inten    --     24.6803               275.7760                 4.5089

                     55                     56                     57
                      A                      A                      A
 Frequencies --   1702.6567              1720.6930              3026.1617
 Red. masses --     11.7696                12.6346                 1.0355
 Frc consts  --     20.1033                22.0404                 5.5870
 IR Inten    --    917.2468               217.1114                25.2975

                     58                     59                     60
                      A                      A                      A
 Frequencies --   3029.5214              3034.6583              3088.4463
 Red. masses --      1.0374                 1.0383                 1.1026
 Frc consts  --      5.6096                 5.6336                 6.1964
 IR Inten    --     59.5413                34.1373                11.4756

                     61                     62                     63
                      A                      A                      A
 Frequencies --   3088.9467              3093.3118              3099.3355
 Red. masses --      1.1022                 1.1027                 1.1009
 Frc consts  --      6.1962                 6.2164                 6.2308
 IR Inten    --     31.3289                55.9335                75.6413

                     64                     65                     66
                      A                      A                      A
 Frequencies --   3132.3669              3134.6696              3215.1656
 Red. masses --      1.0991                 1.0984                 1.0910
 Frc consts  --      6.3537                 6.3591                 6.6445
 IR Inten    --      0.0937                39.1334                 0.2729

 - Thermochemistry -
 -------------------
 Temperature   298.150 Kelvin.  Pressure   1.00000 Atm.
 Atom     1 has atomic number  6 and mass  12.00000

 Molecular mass:   232.00579 amu.
 Principal axes and moments of inertia in atomic units:
                           1         2         3
     Eigenvalues --  2075.393904721.323846392.17786
           X            0.99664  -0.08188   0.00309
           Y            0.06282   0.78776   0.61277
           Z           -0.05261  -0.61052   0.79025
 This molecule is an asymmetric top.
 Rotational symmetry number  1.
 Warning -- assumption of classical behavior for rotation
           may cause significant error
 Rotational temperatures (Kelvin)      0.04173     0.01835     0.01355
 Rotational constants (GHZ):           0.86959     0.38225     0.28234
 Zero-point vibrational energy     466019.2 (Joules/Mol)
                                  111.38127 (Kcal/Mol)
 Warning -- explicit consideration of  23 degrees of freedom as
           vibrations may cause significant error
 Vibrational temperatures:     51.51    84.30   123.33   193.91   241.61
          (Kelvin)            296.48   297.33   337.42   352.63   362.62
                              389.04   401.12   452.10   482.14   524.12
                              545.49   546.03   605.35   676.71   677.68
                              758.61   776.90   876.46  1003.78  1043.18
                             1092.06  1156.84  1214.43  1248.51  1318.72
                             1345.99  1349.38  1390.78  1399.84  1496.10
                             1505.87  1549.07  1706.79  1746.31  1758.99
                             1811.19  1847.33  1936.15  1999.98  2009.11
                             2048.76  2123.78  2142.50  2143.67  2148.50
                             2162.95  2184.59  2316.08  2399.42  2449.74
                             2475.69  4353.97  4358.81  4366.20  4443.59
                             4444.31  4450.59  4459.25  4506.78  4510.09
                             4625.91

 Zero-point correction=                           0.177497 (Hartree/Particle)
 Thermal correction to Energy=                    0.191651
 Thermal correction to Enthalpy=                  0.192595
 Thermal correction to Gibbs Free Energy=         0.136214
 Sum of electronic and zero-point Energies=          -1457.927354
 Sum of electronic and thermal Energies=             -1457.913201
 Sum of electronic and thermal Enthalpies=           -1457.912256
 Sum of electronic and thermal Free Energies=        -1457.968637

                     E (Thermal)             CV                S
                      KCal/Mol        Cal/Mol-Kelvin    Cal/Mol-Kelvin
 Total                  120.263             52.608            118.662
 Electronic               0.000              0.000              0.000
 Translational            0.889              2.981             42.227
 Rotational               0.889              2.981             32.504
 Vibrational            118.485             46.647             43.931
 Vibration     1          0.594              1.982              5.479
 Vibration     2          0.596              1.974              4.504
 Vibration     3          0.601              1.959              3.756
 Vibration     4          0.613              1.919              2.877
 Vibration     5          0.625              1.882              2.459
 Vibration     6          0.641              1.831              2.078
 Vibration     7          0.641              1.830              2.073
 Vibration     8          0.654              1.788              1.844
 Vibration     9          0.660              1.771              1.766
 Vibration    10          0.664              1.759              1.716
 Vibration    11          0.674              1.728              1.594
 Vibration    12          0.679              1.713              1.541
 Vibration    13          0.702              1.647              1.340
 Vibration    14          0.716              1.605              1.235
 Vibration    15          0.738              1.546              1.104
 Vibration    16          0.749              1.515              1.043
 Vibration    17          0.750              1.514              1.041
 Vibration    18          0.783              1.425              0.889
 Vibration    19          0.827              1.316              0.737
 Vibration    20          0.828              1.314              0.735
 Vibration    21          0.882              1.190              0.593
 Vibration    22          0.895              1.162              0.565
 Vibration    23          0.968              1.012              0.434

                           ! Non-Optimized Parameters !
 Normal termination of Gaussian 16 at Sat Feb 10 10:36:12 2024.
