 Q-Chem 5.4, Q-Chem, Inc., Pleasanton, CA (2021)
 Q-Chem 5.4.0 for Intel X86 EM64T Linux

User input:
--------------------------------------------------------------
$molecule
0 1
O                 -0.0157950000     -2.6924770000      0.8126190000
C                 -0.0085060000     -1.4774200000      0.7188590000
C                  1.2758040000     -0.7211770000      0.5920860000
C                  2.4238650000     -1.4202060000      0.1957420000
C                  3.6141720000     -0.7451850000     -0.0454200000
C                  3.6758050000      0.6418150000      0.1031290000
C                  2.5535140000      1.3531310000      0.5207610000
C                  1.3672190000      0.6672200000      0.7587660000
S                  0.0116560000      1.6187190000      1.5040640000
O                  0.0193920000      3.0248580000      0.9515400000
C                 -1.3577330000      0.6838910000      0.7629710000
C                 -2.5362740000      1.3842760000      0.5286020000
C                 -3.6684580000      0.6867540000      0.1144380000
C                 -3.6242750000     -0.7009010000     -0.0342800000
C                 -2.4415820000     -1.3904390000      0.2032290000
C                 -1.2838440000     -0.7055220000      0.5960300000
H                  2.3495910000     -2.4930620000      0.0668290000
H                  4.4929820000     -1.2964520000     -0.3588450000
H                  4.5990190000      1.1708790000     -0.1039250000
H                  2.5829350000      2.4291270000      0.6470240000
H                 -2.5521210000      2.4605480000      0.6549390000
H                 -4.5857670000      1.2270720000     -0.0897890000
H                 -4.5107440000     -1.2413310000     -0.3449940000
H                 -2.3808560000     -2.4641190000      0.0740780000
$end

$rem
BASIS  =  6-311++G(d,p)
GUI  =  2
JOB_TYPE  =  SP
METHOD  =  B3LYP
SCF_CONVERGENCE  = 8
SOLVENT_METHOD = sm12
$end

$smx
solvent dimethylformamide
charges CM5
$end

--------------------------------------------------------------

             Standard Nuclear Orientation (Angstroms)
    I     Atom           X                Y                Z
 ----------------------------------------------------------------
    1      O      -0.0157950000    -2.6924770000     0.8126190000
    2      C      -0.0085060000    -1.4774200000     0.7188590000
    3      C       1.2758040000    -0.7211770000     0.5920860000
    4      C       2.4238650000    -1.4202060000     0.1957420000
    5      C       3.6141720000    -0.7451850000    -0.0454200000
    6      C       3.6758050000     0.6418150000     0.1031290000
    7      C       2.5535140000     1.3531310000     0.5207610000
    8      C       1.3672190000     0.6672200000     0.7587660000
    9      S       0.0116560000     1.6187190000     1.5040640000
   10      O       0.0193920000     3.0248580000     0.9515400000
   11      C      -1.3577330000     0.6838910000     0.7629710000
   12      C      -2.5362740000     1.3842760000     0.5286020000
   13      C      -3.6684580000     0.6867540000     0.1144380000
   14      C      -3.6242750000    -0.7009010000    -0.0342800000
   15      C      -2.4415820000    -1.3904390000     0.2032290000
   16      C      -1.2838440000    -0.7055220000     0.5960300000
   17      H       2.3495910000    -2.4930620000     0.0668290000
   18      H       4.4929820000    -1.2964520000    -0.3588450000
   19      H       4.5990190000     1.1708790000    -0.1039250000
   20      H       2.5829350000     2.4291270000     0.6470240000
   21      H      -2.5521210000     2.4605480000     0.6549390000
   22      H      -4.5857670000     1.2270720000    -0.0897890000
   23      H      -4.5107440000    -1.2413310000    -0.3449940000
   24      H      -2.3808560000    -2.4641190000     0.0740780000
 ----------------------------------------------------------------

   15   -1048.9835638857      6.08e-09  Convergence criterion met
 Total energy in the final basis set =    -1049.0063051864

                    Orbital Energies (a.u.)
 --------------------------------------------------------------

 Alpha MOs
 -- Occupied --
-88.9762 -19.1303 -19.1082 -10.2863 -10.2308 -10.2308 -10.2151 -10.2151
-10.2028 -10.2028 -10.2018 -10.2018 -10.2013 -10.2013 -10.1966 -10.1966
 -8.0528  -6.0154  -6.0142  -6.0087  -1.0665  -1.0395  -0.9001  -0.8876
 -0.8181  -0.7907  -0.7812  -0.7745  -0.7180  -0.6759  -0.6431  -0.6241
 -0.6104  -0.5725  -0.5600  -0.5138  -0.4925  -0.4923  -0.4858  -0.4629
 -0.4576  -0.4574  -0.4504  -0.4481  -0.4387  -0.4178  -0.3971  -0.3966
 -0.3807  -0.3767  -0.3753  -0.3734  -0.3097  -0.2959  -0.2853  -0.2827
 -0.2820  -0.2743  -0.2518

          Ground-State Mulliken Net Atomic Charges

     Atom                 Charge (a.u.)
  ----------------------------------------
      1 O                    -0.259722
      2 C                    -1.016196
      3 C                     0.745113
      4 C                     0.266600
      5 C                     0.028614
      6 C                     0.497154
      7 C                    -0.044144
      8 C                    -1.662328
      9 S                    -0.051905
     10 O                    -0.505939
     11 C                    -1.662329
     12 C                    -0.044020
     13 C                     0.497185
     14 C                     0.028628
     15 C                     0.266809
     16 C                     0.744492
     17 H                     0.214767
     18 H                     0.319853
     19 H                     0.329765
     20 H                     0.221621
     21 H                     0.221607
     22 H                     0.329760
     23 H                     0.319844
     24 H                     0.214771
  ----------------------------------------
  Sum of atomic charges =     0.000000

                    Cartesian Multipole Moments
 -----------------------------------------------------------------
    Charge (ESU x 10^10)
                 0.0000
    Dipole Moment (Debye)
         X      -0.0086      Y      -1.0714      Z      -1.3311
       Tot       1.7088
    Quadrupole Moments (Debye-Ang)
        XX     -67.3990     XY      -0.2915     YY    -115.6716
        XZ      -0.0416     YZ       1.9846     ZZ    -102.8802

 Total job time:  483.12s(wall), 3296.31s(cpu)
        *  Thank you very much for using Q-Chem.  Have a nice day.  *
