 Q-Chem 5.4, Q-Chem, Inc., Pleasanton, CA (2021)
 Q-Chem 5.4.0 for Intel X86 EM64T Linux

User input:
--------------------------------------------------------------
$molecule
-1 2
C                  3.0001140000     -1.1071070000     -0.1393680000
C                  1.6832440000     -0.3880580000     -0.0107770000
C                  1.6061340000      0.9275740000      0.3646370000
C                  0.3604640000      1.6463660000      0.4973760000
O                  0.3324690000      2.8648510000      0.8475820000
C                 -0.8529510000      0.8892570000      0.2057430000
C                 -0.7938760000     -0.4368610000     -0.1739140000
C                 -2.0480440000     -1.2207770000     -0.4760220000
C                  0.4752000000     -1.1451490000     -0.3020650000
O                  0.5376530000     -2.3636290000     -0.6502080000
C                 -2.1692960000      1.6149330000      0.3360880000
H                  3.1385640000     -1.4960770000     -1.1541820000
H                  3.8347640000     -0.4420810000      0.1020720000
H                  3.0385520000     -1.9792240000      0.5226510000
H                  2.5080590000      1.4954390000      0.5827660000
H                 -2.7205840000     -1.2618080000      0.3906660000
H                 -1.7775210000     -2.2392890000     -0.7568560000
H                 -2.6215850000     -0.7699860000     -1.2963130000
H                 -2.8261130000      1.1391440000      1.0760110000
H                 -1.9819260000      2.6439620000      0.6457500000
H                 -2.7233210000      1.6285180000     -0.6116370000
$end

$rem
BASIS  =  6-311++G(d,p)
GUI  =  2
JOB_TYPE  =  SP
METHOD  =  B3LYP
SCF_CONVERGENCE  = 8
SOLVENT_METHOD = sm12
$end

$smx
solvent dimethylformamide
charges CM5
$end

--------------------------------------------------------------

             Standard Nuclear Orientation (Angstroms)
    I     Atom           X                Y                Z
 ----------------------------------------------------------------
    1      C       3.0001140000    -1.1071070000    -0.1393680000
    2      C       1.6832440000    -0.3880580000    -0.0107770000
    3      C       1.6061340000     0.9275740000     0.3646370000
    4      C       0.3604640000     1.6463660000     0.4973760000
    5      O       0.3324690000     2.8648510000     0.8475820000
    6      C      -0.8529510000     0.8892570000     0.2057430000
    7      C      -0.7938760000    -0.4368610000    -0.1739140000
    8      C      -2.0480440000    -1.2207770000    -0.4760220000
    9      C       0.4752000000    -1.1451490000    -0.3020650000
   10      O       0.5376530000    -2.3636290000    -0.6502080000
   11      C      -2.1692960000     1.6149330000     0.3360880000
   12      H       3.1385640000    -1.4960770000    -1.1541820000
   13      H       3.8347640000    -0.4420810000     0.1020720000
   14      H       3.0385520000    -1.9792240000     0.5226510000
   15      H       2.5080590000     1.4954390000     0.5827660000
   16      H      -2.7205840000    -1.2618080000     0.3906660000
   17      H      -1.7775210000    -2.2392890000    -0.7568560000
   18      H      -2.6215850000    -0.7699860000    -1.2963130000
   19      H      -2.8261130000     1.1391440000     1.0760110000
   20      H      -1.9819260000     2.6439620000     0.6457500000
   21      H      -2.7233210000     1.6285180000    -0.6116370000
 ----------------------------------------------------------------

   17    -499.6223631793      4.93e-09  Convergence criterion met
 Total energy in the final basis set =     -499.7072592917

                    Orbital Energies (a.u.)
 --------------------------------------------------------------

 Alpha MOs
 -- Occupied --
-19.0734 -19.0726 -10.2163 -10.2155 -10.1742 -10.1715 -10.1706 -10.1670
-10.1648 -10.1644 -10.1615  -0.9944  -0.9915  -0.8318  -0.7912  -0.7306
 -0.7145  -0.6669  -0.6407  -0.5675  -0.5453  -0.4973  -0.4555  -0.4425
 -0.4253  -0.4196  -0.4122  -0.4019  -0.3978  -0.3936  -0.3898  -0.3776
 -0.3754  -0.3610  -0.3502  -0.3445  -0.2736  -0.2439  -0.2414  -0.2321
 -0.1585

 Beta MOs
 -- Occupied --
-19.0663 -19.0654 -10.2151 -10.2140 -10.1729 -10.1706 -10.1694 -10.1671
-10.1649 -10.1645 -10.1605  -0.9820  -0.9788  -0.8264  -0.7891  -0.7279
 -0.7121  -0.6629  -0.6349  -0.5640  -0.5414  -0.4954  -0.4515  -0.4368
 -0.4215  -0.4165  -0.4104  -0.3992  -0.3959  -0.3914  -0.3866  -0.3744
 -0.3614  -0.3471  -0.3425  -0.3340  -0.2429  -0.2346  -0.2340  -0.2257

          Ground-State Mulliken Net Atomic Charges

     Atom                 Charge (a.u.)    Spin (a.u.)
  --------------------------------------------------------
      1 C                     0.768865       0.011027
      2 C                     0.619574       0.086411
      3 C                    -0.854416       0.048842
      4 C                    -1.593130       0.066604
      5 O                    -0.364874       0.258676
      6 C                     0.441683       0.118526
      7 C                    -0.488327       0.044402
      8 C                     0.233712      -0.005861
      9 C                    -1.612744       0.090118
     10 O                    -0.332615       0.264462
     11 C                     0.263712       0.007038
     12 H                     0.187338       0.004724
     13 H                     0.257025      -0.000029
     14 H                     0.187379       0.004778
     15 H                     0.104029      -0.008527
     16 H                     0.200883       0.002894
     17 H                     0.189042      -0.002190
     18 H                     0.201276       0.002864
     19 H                     0.208287       0.003756
     20 H                     0.175122      -0.002285
     21 H                     0.208177       0.003769
  --------------------------------------------------------
  Sum of atomic charges =    -1.000000

                    Cartesian Multipole Moments
 -----------------------------------------------------------------
    Charge (ESU x 10^10)
                -4.8032
    Dipole Moment (Debye)
         X      -2.0553      Y      -1.6265      Z      -0.5967
       Tot       2.6881
    Quadrupole Moments (Debye-Ang)
        XX     -72.3275     XY       0.3198     YY    -105.5655
        XZ      -0.0223     YZ     -10.1169     ZZ     -73.4175

 Total job time:  321.27s(wall), 2233.87s(cpu)
        *  Thank you very much for using Q-Chem.  Have a nice day.  *
