 Gaussian 16, Revision A.03,
 Gaussian 16:  ES64L-G16RevA.03 25-Dec-2016

 ----------------------------------------------------------------
 #P UB3LYP/6-311++G(d,p) SCRF=(PCM,Solvent=n,n-DiMethylFormamide)
 ----------------------------------------------------------------

 ------------------
 Quinone PCM in DMF
 ------------------
 Symbolic Z-matrix:
 Charge =  0 Multiplicity = 1

                         Standard orientation:
 ---------------------------------------------------------------------
 Center     Atomic      Atomic             Coordinates (Angstroms)
 Number     Number       Type             X           Y           Z
 ---------------------------------------------------------------------
      1          6           0       -3.125977   -1.375016   -0.406388
      2          6           0       -1.795801   -1.540432   -0.319022
      3          6           0       -0.862212   -0.451366    0.032074
      4          6           0       -1.357928    0.788826    0.305834
      5          6           0        0.557518   -0.765717    0.070483
      6          6           0        1.701230    0.127293   -0.032323
      7          6           0        1.082088   -2.034337    0.264161
      8          6           0        2.863187   -0.670321    0.120217
      9          6           0        1.868533    1.498320   -0.289952
     10          6           0        3.151919    2.022731   -0.357622
     11          6           0        4.285264    1.210054   -0.180324
     12          6           0        4.155894   -0.151742    0.053700
     13          7           0        2.445922   -1.978298    0.304293
     14          1           0       -0.716815    1.602743    0.615723
     15          1           0        0.574692   -2.973730    0.414141
     16          1           0        1.016945    2.145705   -0.449646
     17          1           0        3.283992    3.080130   -0.554676
     18          1           0        5.273545    1.651107   -0.236006
     19          1           0        5.026430   -0.786790    0.173880
     20          1           0        3.051939   -2.768078    0.455825
     21          6           0       -3.746489   -0.065285   -0.141518
     22          6           0       -2.782761    1.092027    0.259841
     23          8           0       -4.940946    0.121744   -0.226187
     24          8           0       -3.238771    2.188835    0.526598
     25          1           0       -3.790377   -2.185952   -0.683228
     26          1           0       -1.370854   -2.511893   -0.544307
 ---------------------------------------------------------------------

 SCF Done:  E(UB3LYP) =  -744.293011870     A.U. after   16 cycles

 The electronic state is 1-A.
 Alpha  occ. eigenvalues --  -19.14546 -19.13139 -14.38357 -10.28233 -10.27321
 Alpha  occ. eigenvalues --  -10.23711 -10.23124 -10.22619 -10.21910 -10.20221
 Alpha  occ. eigenvalues --  -10.20159 -10.19546 -10.18999 -10.18817 -10.18725
 Alpha  occ. eigenvalues --  -10.18502 -10.18121  -1.08278  -1.05432  -1.00908
 Alpha  occ. eigenvalues --   -0.87706  -0.86222  -0.81495  -0.77117  -0.75798
 Alpha  occ. eigenvalues --   -0.75064  -0.71469  -0.64562  -0.63649  -0.62942
 Alpha  occ. eigenvalues --   -0.60652  -0.57845  -0.56099  -0.52215  -0.51454
 Alpha  occ. eigenvalues --   -0.49912  -0.49149  -0.47903  -0.46252  -0.45672
 Alpha  occ. eigenvalues --   -0.45231  -0.44901  -0.44824  -0.44252  -0.42367
 Alpha  occ. eigenvalues --   -0.42072  -0.39548  -0.39416  -0.37694  -0.36686
 Alpha  occ. eigenvalues --   -0.35821  -0.35454  -0.31325  -0.30429  -0.26827
 Alpha  occ. eigenvalues --   -0.26133  -0.25034  -0.22755
 Alpha virt. eigenvalues --   -0.13708  -0.04607  -0.02173  -0.01581  -0.00720
 Alpha virt. eigenvalues --   -0.00284   0.00266   0.00521   0.01666   0.02101
 Alpha virt. eigenvalues --    0.03024   0.03212   0.03924   0.03970   0.04874

  Beta  occ. eigenvalues --  -19.14546 -19.13139 -14.38357 -10.28233 -10.27321
  Beta  occ. eigenvalues --  -10.23711 -10.23124 -10.22619 -10.21910 -10.20221
  Beta  occ. eigenvalues --  -10.20159 -10.19546 -10.18999 -10.18817 -10.18725
  Beta  occ. eigenvalues --  -10.18502 -10.18121  -1.08278  -1.05432  -1.00908
  Beta  occ. eigenvalues --   -0.87706  -0.86222  -0.81495  -0.77117  -0.75798
  Beta  occ. eigenvalues --   -0.75064  -0.71469  -0.64562  -0.63649  -0.62942
  Beta  occ. eigenvalues --   -0.60652  -0.57845  -0.56099  -0.52215  -0.51454
  Beta  occ. eigenvalues --   -0.49912  -0.49149  -0.47903  -0.46252  -0.45672
  Beta  occ. eigenvalues --   -0.45231  -0.44901  -0.44824  -0.44252  -0.42367
  Beta  occ. eigenvalues --   -0.42072  -0.39548  -0.39416  -0.37694  -0.36686
  Beta  occ. eigenvalues --   -0.35821  -0.35454  -0.31325  -0.30429  -0.26827
  Beta  occ. eigenvalues --   -0.26133  -0.25034  -0.22755
  Beta virt. eigenvalues --   -0.13708  -0.04607  -0.02173  -0.01581  -0.00720
  Beta virt. eigenvalues --   -0.00284   0.00266   0.00521   0.01666   0.02101
  Beta virt. eigenvalues --    0.03024   0.03212   0.03924   0.03970   0.04874

 Mulliken charges and spin densities:
               1          2
     1  C    0.462854  -0.000000
     2  C   -1.508474   0.000000
     3  C    1.096221  -0.000000
     4  C   -0.296566   0.000000
     5  C    0.963735  -0.000000
     6  C    1.168504   0.000000
     7  C   -0.111680   0.000000
     8  C   -0.191729   0.000000
     9  C   -0.987914  -0.000000
    10  C   -0.529326  -0.000000
    11  C   -0.252037  -0.000000
    12  C   -0.628760   0.000000
    13  N   -0.046766  -0.000000
    14  H    0.177407   0.000000
    15  H    0.222420   0.000000
    16  H    0.113170  -0.000000
    17  H    0.199813  -0.000000
    18  H    0.190795   0.000000
    19  H    0.195928   0.000000
    20  H    0.349617   0.000000
    21  C   -0.369319   0.000000
    22  C    0.036831  -0.000000
    23  O   -0.300659  -0.000000
    24  O   -0.343663  -0.000000
    25  H    0.245436  -0.000000
    26  H    0.144163   0.000000
 Sum of Mulliken charges =  -0.00000  -0.00000

 Dipole moment (field-independent basis, Debye):
    X=             11.2601    Y=             -8.9202    Z=             -0.3104  Tot=             14.3686
 Quadrupole moment (field-independent basis, Debye-Ang):
   XX=           -121.6025   YY=            -84.5087   ZZ=           -101.6413
   XY=              8.9140   XZ=              4.2042   YZ=             -4.3900

 Normal termination of Gaussian 16 at Sat Jan 13 19:17:12 2024.
