 Gaussian 16, Revision A.03,
 Gaussian 16:  ES64L-G16RevA.03 25-Dec-2016

 --------------------------------------
 #P UB3LYP/6-311++G(d,p) nosym opt freq
 --------------------------------------

 -------
 Reduced
 -------
 Symbolic Z-matrix:
 Charge = -2 Multiplicity = 1

 SCF Done:  E(UB3LYP) =  -1615.33855110     A.U. after  111 cycles
 SCF Done:  E(UB3LYP) =  -1615.36253370     A.U. after   41 cycles
 SCF Done:  E(UB3LYP) =  -1615.37216673     A.U. after   19 cycles
 SCF Done:  E(UB3LYP) =  -1615.37796208     A.U. after   18 cycles
 SCF Done:  E(UB3LYP) =  -1615.37780695     A.U. after   18 cycles
 SCF Done:  E(UB3LYP) =  -1615.37295647     A.U. after   19 cycles
 SCF Done:  E(UB3LYP) =  -1615.37275322     A.U. after   18 cycles
 SCF Done:  E(UB3LYP) =  -1615.37804730     A.U. after   15 cycles
 SCF Done:  E(UB3LYP) =  -1615.37835617     A.U. after   17 cycles
 SCF Done:  E(UB3LYP) =  -1615.37735356     A.U. after   18 cycles
 SCF Done:  E(UB3LYP) =  -1615.37823513     A.U. after   17 cycles
 SCF Done:  E(UB3LYP) =  -1615.37840768     A.U. after   12 cycles
 SCF Done:  E(UB3LYP) =  -1615.37842702     A.U. after   16 cycles
 SCF Done:  E(UB3LYP) =  -1615.37842987     A.U. after   15 cycles
 SCF Done:  E(UB3LYP) =  -1615.37843350     A.U. after   16 cycles
 SCF Done:  E(UB3LYP) =  -1615.37843850     A.U. after   15 cycles
 Optimization completed.
    -- Stationary point found.
 Normal termination of Gaussian 16 at Mon Dec 18 00:54:26 2023.

 ----------------------------------------------------------------------
 #P Geom=AllCheck Guess=TCheck SCRF=Check GenChk UB3LYP/6-311++G(d,p) F
 req
 ----------------------------------------------------------------------

 Structure from the checkpoint file:  "018-an.chk"
 -------
 Reduced
 -------
 Charge = -2 Multiplicity = 1

                          Input orientation:
 ---------------------------------------------------------------------
 Center     Atomic      Atomic             Coordinates (Angstroms)
 Number     Number       Type             X           Y           Z
 ---------------------------------------------------------------------
      1          6           0       -1.583714    0.719972    1.504969
      2          6           0       -2.754689    1.159362    0.759834
      3          6           0       -2.679279    1.088335   -0.642025
      4          6           0       -1.574340    0.632312   -1.435180
      5          6           0       -0.402251    0.195630   -0.690124
      6          6           0       -0.478489    0.264582    0.711784
      7          8           0       -1.628308    0.615131   -2.726976
      8          8           0       -1.530756    0.734641    2.796827
      9         17           0        0.892572   -0.244395    1.790103
     10         17           0       -4.052751    1.591398   -1.720045
     11          6           0        0.783882   -0.293460   -1.580924
     12          6           0        1.218238    0.873532   -2.509299
     13          6           0        2.080296   -0.778701   -0.894491
     14          6           0        0.295101   -1.491661   -2.439661
     15          6           0       -3.938913    1.653267    1.650462
     16          6           0       -3.444510    2.848729    2.510009
     17          6           0       -5.232349    2.145996    0.963718
     18          6           0       -4.379148    0.488036    2.578084
     19          1           0        0.352220    1.248153   -3.056356
     20          1           0        1.983986    0.528108   -3.221170
     21          1           0        1.654399    1.680817   -1.909003
     22          1           0        2.556504   -0.001513   -0.295422
     23          1           0        2.779315   -1.072770   -1.691332
     24          1           0        1.917964   -1.643257   -0.249687
     25          1           0        0.080534   -2.348737   -1.790306
     26          1           0        1.078299   -1.793434   -3.152410
     27          1           0       -0.606164   -1.207835   -2.984498
     28          1           0       -2.544328    2.560699    3.054395
     29          1           0       -4.226185    3.153306    3.223223
     30          1           0       -3.226560    3.705362    1.861195
     31          1           0       -5.064248    3.008120    0.317064
     32          1           0       -5.928874    2.446584    1.760304
     33          1           0       -5.714314    1.371015    0.366461
     34          1           0       -3.514991    0.109299    3.125299
     35          1           0       -4.818574   -0.317103    1.977292
     36          1           0       -5.143675    0.836582    3.289755
 ---------------------------------------------------------------------

 SCF Done:  E(UB3LYP) =  -1615.37843850     A.U. after    1 cycles

 Alpha  occ. eigenvalues -- -101.27757-101.27756 -18.76539 -18.76538  -9.95545
 Alpha  occ. eigenvalues --   -9.95545  -9.94502  -9.94500  -9.93785  -9.93783
 Alpha  occ. eigenvalues --   -9.93181  -9.93180  -9.91911  -9.91909  -9.91908
 Alpha  occ. eigenvalues --   -9.91905  -9.91188  -9.91186  -9.19242  -9.19242
 Alpha  occ. eigenvalues --   -6.95628  -6.95628  -6.94805  -6.94805  -6.94694
 Alpha  occ. eigenvalues --   -6.94694  -0.69373  -0.68847  -0.59304  -0.59263
 Alpha  occ. eigenvalues --   -0.57082  -0.56509  -0.51779  -0.45854  -0.45025
 Alpha  occ. eigenvalues --   -0.44886  -0.44883  -0.44289  -0.39658  -0.36055
 Alpha  occ. eigenvalues --   -0.30765  -0.28578  -0.27426  -0.23440  -0.22564
 Alpha  occ. eigenvalues --   -0.21693  -0.20549  -0.20514  -0.19623  -0.18276
 Alpha  occ. eigenvalues --   -0.16873  -0.16597  -0.16359  -0.15692  -0.15349
 Alpha  occ. eigenvalues --   -0.14552  -0.13802  -0.13518  -0.11762  -0.11102
 Alpha  occ. eigenvalues --   -0.10350  -0.09986  -0.09771  -0.09292  -0.09282
 Alpha  occ. eigenvalues --   -0.08674  -0.08643  -0.08549  -0.05068  -0.04670
 Alpha  occ. eigenvalues --   -0.03653  -0.03251   0.02253   0.03368   0.05197
 Alpha  occ. eigenvalues --    0.05486   0.12438
 Alpha virt. eigenvalues --    0.16031   0.16170   0.18359   0.18378   0.18530
 Alpha virt. eigenvalues --    0.18633   0.19221   0.19910   0.21380   0.21536
 Alpha virt. eigenvalues --    0.21549   0.21820   0.22353   0.22410   0.23355

  Beta  occ. eigenvalues -- -101.27757-101.27756 -18.76539 -18.76538  -9.95545
  Beta  occ. eigenvalues --   -9.95545  -9.94502  -9.94500  -9.93785  -9.93783
  Beta  occ. eigenvalues --   -9.93181  -9.93180  -9.91911  -9.91909  -9.91908
  Beta  occ. eigenvalues --   -9.91905  -9.91188  -9.91186  -9.19242  -9.19242
  Beta  occ. eigenvalues --   -6.95628  -6.95628  -6.94805  -6.94805  -6.94694
  Beta  occ. eigenvalues --   -6.94694  -0.69373  -0.68847  -0.59304  -0.59263
  Beta  occ. eigenvalues --   -0.57082  -0.56509  -0.51779  -0.45854  -0.45025
  Beta  occ. eigenvalues --   -0.44886  -0.44883  -0.44289  -0.39658  -0.36055
  Beta  occ. eigenvalues --   -0.30765  -0.28578  -0.27426  -0.23440  -0.22564
  Beta  occ. eigenvalues --   -0.21693  -0.20549  -0.20514  -0.19623  -0.18276
  Beta  occ. eigenvalues --   -0.16873  -0.16597  -0.16359  -0.15692  -0.15349
  Beta  occ. eigenvalues --   -0.14552  -0.13802  -0.13518  -0.11762  -0.11102
  Beta  occ. eigenvalues --   -0.10350  -0.09986  -0.09771  -0.09292  -0.09282
  Beta  occ. eigenvalues --   -0.08674  -0.08643  -0.08549  -0.05068  -0.04670
  Beta  occ. eigenvalues --   -0.03653  -0.03251   0.02253   0.03368   0.05197
  Beta  occ. eigenvalues --    0.05486   0.12438
  Beta virt. eigenvalues --    0.16031   0.16170   0.18359   0.18378   0.18530
  Beta virt. eigenvalues --    0.18633   0.19221   0.19910   0.21380   0.21536
  Beta virt. eigenvalues --    0.21549   0.21820   0.22353   0.22410   0.23355

 Mulliken charges and spin densities:
               1          2
     1  C   -1.042280  -0.000000
     2  C    0.233796   0.000000
     3  C   -0.074477  -0.000000
     4  C   -1.042029   0.000000
     5  C    0.234328   0.000000
     6  C   -0.074299   0.000000
     7  O   -0.406037  -0.000000
     8  O   -0.406003   0.000000
     9  Cl   0.442118   0.000000
    10  Cl   0.442087  -0.000000
    11  C    0.906457   0.000000
    12  C   -0.693631   0.000000
    13  C   -0.698306  -0.000000
    14  C   -0.693459  -0.000000
    15  C    0.906739  -0.000000
    16  C   -0.694084   0.000000
    17  C   -0.698400   0.000000
    18  C   -0.693211   0.000000
    19  H    0.213482  -0.000000
    20  H    0.062583   0.000000
    21  H    0.092010  -0.000000
    22  H    0.112632   0.000000
    23  H    0.063765  -0.000000
    24  H    0.112459  -0.000000
    25  H    0.092310   0.000000
    26  H    0.062587   0.000000
    27  H    0.213505  -0.000000
    28  H    0.213399   0.000000
    29  H    0.062572   0.000000
    30  H    0.092054   0.000000
    31  H    0.112850  -0.000000
    32  H    0.063773  -0.000000
    33  H    0.112215  -0.000000
    34  H    0.213691   0.000000
    35  H    0.092232   0.000000
    36  H    0.062574  -0.000000
 Sum of Mulliken charges =  -2.00000   0.00000

 Dipole moment (field-independent basis, Debye):
    X=             15.1693    Y=             -6.4949    Z=             -0.3354  Tot=             16.5047
 Quadrupole moment (field-independent basis, Debye-Ang):
   XX=           -202.1571   YY=           -150.7818   ZZ=           -199.9454
   XY=             25.0808   XZ=              2.0746   YZ=             -2.5449

  Exact polarizability: 306.641 -49.739 201.182 -23.834  12.069 275.445
 Approx polarizability: 416.725 -57.640 291.536   7.919   1.668 434.655

                      1                      2                      3
                      A                      A                      A
 Frequencies --     15.9852                42.6709                49.1185
 Red. masses --      4.3757                 5.3033                 4.7827
 Frc consts  --      0.0007                 0.0057                 0.0068
 IR Inten    --      1.9012                 0.0000                 1.2693

                      4                      5                      6
                      A                      A                      A
 Frequencies --     80.7927                97.8607               176.4184
 Red. masses --      4.6470                 3.8245                 4.2369
 Frc consts  --      0.0179                 0.0216                 0.0777
 IR Inten    --      3.1048                 0.0003                 6.4366

                      7                      8                      9
                      A                      A                      A
 Frequencies --    211.3033               222.1182               224.7108
 Red. masses --      7.9667                 6.8116                 4.9103
 Frc consts  --      0.2096                 0.1980                 0.1461
 IR Inten    --      0.0001                 5.6475                 7.0471

                     10                     11                     12
                      A                      A                      A
 Frequencies --    238.4473               239.2714               247.4164
 Red. masses --      2.7352                 1.3234                 1.1170
 Frc consts  --      0.0916                 0.0446                 0.0403
 IR Inten    --      0.0000                 0.0004                 0.3910

                     13                     14                     15
                      A                      A                      A
 Frequencies --    265.5048               273.8054               276.6726
 Red. masses --      1.2517                 2.5181                 1.0980
 Frc consts  --      0.0520                 0.1112                 0.0495
 IR Inten    --      0.0001                 0.0000                 0.6223

                     16                     17                     18
                      A                      A                      A
 Frequencies --    295.3402               312.7245               316.9247
 Red. masses --     14.4908                 2.3196                11.6896
 Frc consts  --      0.7447                 0.1337                 0.6918
 IR Inten    --      0.0001                 0.0001                 0.0035

                     19                     20                     21
                      A                      A                      A
 Frequencies --    322.2038               332.0024               349.0424
 Red. masses --      3.2707                 3.1379                 3.8794
 Frc consts  --      0.2001                 0.2038                 0.2785
 IR Inten    --      2.5460                 1.8300                 9.6572

                     22                     23                     24
                      A                      A                      A
 Frequencies --    377.6663               388.3997               388.7780
 Red. masses --      8.8782                 1.0721                 1.1074
 Frc consts  --      0.7461                 0.0953                 0.0986
 IR Inten    --      0.0000                 0.0176                 1.0969

                     25                     26                     27
                      A                      A                      A
 Frequencies --    395.4734               398.6547               414.7031
 Red. masses --     13.0232                 2.1335                 2.0945
 Frc consts  --      1.2001                 0.1998                 0.2122
 IR Inten    --      1.6635                 0.0005                 0.0711

                     28                     29                     30
                      A                      A                      A
 Frequencies --    416.9343               438.9259               482.1418
 Red. masses --      2.4381                 2.5917                 8.7971
 Frc consts  --      0.2497                 0.2942                 1.2049
 IR Inten    --      0.0007                15.5113                 0.0000

                     31                     32                     33
                      A                      A                      A
 Frequencies --    494.7345               528.0685               546.0307
 Red. masses --      4.7749                 3.5946                 2.6804
 Frc consts  --      0.6886                 0.5906                 0.4709
 IR Inten    --      0.0003                14.9972                 0.0000

                     34                     35                     36
                      A                      A                      A
 Frequencies --    591.4634               647.6416               729.8985
 Red. masses --      8.6583                 5.2843                10.2127
 Frc consts  --      1.7846                 1.3059                 3.2057
 IR Inten    --      0.5115                63.2584                 5.7675

                     37                     38                     39
                      A                      A                      A
 Frequencies --    734.5638               756.2350               772.5961
 Red. masses --      9.2041                10.7473                 5.4240
 Frc consts  --      2.9261                 3.6213                 1.9075
 IR Inten    --      0.0016                 0.0003                 0.0002

                     40                     41                     42
                      A                      A                      A
 Frequencies --    812.5481               837.1008               906.0154
 Red. masses --      3.5880                 4.2415                 4.1665
 Frc consts  --      1.3957                 1.7512                 2.0151
 IR Inten    --     74.5207                 0.0004               160.8257

                     43                     44                     45
                      A                      A                      A
 Frequencies --    915.7013               915.8958               924.4497
 Red. masses --      1.9082                 1.9006                 1.8823
 Frc consts  --      0.9427                 0.9394                 0.9478
 IR Inten    --      0.0044                 1.2734                 0.0030

                     46                     47                     48
                      A                      A                      A
 Frequencies --    926.4507               953.7126               953.7731
 Red. masses --      1.9741                 1.1969                 1.1969
 Frc consts  --      0.9983                 0.6414                 0.6415
 IR Inten    --     30.6369                 1.0148                 0.6269

                     49                     50                     51
                      A                      A                      A
 Frequencies --    988.7855              1027.6641              1049.8288
 Red. masses --      4.0326                 1.6983                 1.3670
 Frc consts  --      2.3230                 1.0568                 0.8877
 IR Inten    --      0.0001                62.7645                 0.0001

                     52                     53                     54
                      A                      A                      A
 Frequencies --   1050.3434              1050.5054              1089.2239
 Red. masses --      1.3770                 1.3683                 5.8870
 Frc consts  --      0.8950                 0.8897                 4.1151
 IR Inten    --      0.0004                 0.0259               262.1539

                     55                     56                     57
                      A                      A                      A
 Frequencies --   1122.0523              1202.4878              1203.2411
 Red. masses --      3.6956                 2.5145                 2.5267
 Frc consts  --      2.7413                 2.1422                 2.1553
 IR Inten    --     53.9558                 0.0005                16.4665

                     58                     59                     60
                      A                      A                      A
 Frequencies --   1208.6450              1212.3215              1247.9415
 Red. masses --      2.5230                 2.4201                 2.5560
 Frc consts  --      2.1715                 2.0957                 2.3453
 IR Inten    --      0.0034                 4.3953                 0.0006

                     61                     62                     63
                      A                      A                      A
 Frequencies --   1254.3260              1341.7449              1345.5222
 Red. masses --      3.1489                 2.9359                 1.2031
 Frc consts  --      2.9190                 3.1141                 1.2833
 IR Inten    --     97.3830                 0.0029                14.3148

                     64                     65                     66
                      A                      A                      A
 Frequencies --   1345.5812              1345.6265              1365.0878
 Red. masses --      1.3220                 1.4082                 2.1131
 Frc consts  --      1.4103                 1.5023                 2.3200
 IR Inten    --    159.1356               244.4508                 0.0010

                     67                     68                     69
                      A                      A                      A
 Frequencies --   1371.0813              1392.4499              1397.6840
 Red. masses --      7.4598                 3.8196                 1.3966
 Frc consts  --      8.2623                 4.3634                 1.6074
 IR Inten    --     95.4716                 0.0026               159.3334

                     70                     71                     72
                      A                      A                      A
 Frequencies --   1404.7505              1425.2905              1455.5766
 Red. masses --      1.3094                 2.3430                 1.0484
 Frc consts  --      1.5224                 2.8043                 1.3088
 IR Inten    --      0.0004               388.4396                 0.0057

                     73                     74                     75
                      A                      A                      A
 Frequencies --   1455.8223              1477.2411              1481.2526
 Red. masses --      1.0485                 1.0954                 1.1287
 Frc consts  --      1.3092                 1.4083                 1.4590
 IR Inten    --      3.5443                 0.0003                12.5309

                     76                     77                     78
                      A                      A                      A
 Frequencies --   1488.4872              1488.6097              1491.3052
 Red. masses --      1.0485                 1.0485                 1.0592
 Frc consts  --      1.3687                 1.3689                 1.3880
 IR Inten    --      0.0069                 1.2151                 0.0000

                     79                     80                     81
                      A                      A                      A
 Frequencies --   1492.6507              1517.6293              1517.7153
 Red. masses --      1.0753                 1.0535                 1.0535
 Frc consts  --      1.4116                 1.4296                 1.4298
 IR Inten    --     19.6569                 0.0405                 2.2054

                     82                     83                     84
                      A                      A                      A
 Frequencies --   1530.8513              1532.4423              1557.3149
 Red. masses --      1.0914                 1.0575                 6.9256
 Frc consts  --      1.5070                 1.4631                 9.8961
 IR Inten    --      0.0002                 2.4947                 0.0001

                     85                     86                     87
                      A                      A                      A
 Frequencies --   2948.0361              2948.0873              2954.4221
 Red. masses --      1.0486                 1.0487                 1.0502
 Frc consts  --      5.3695                 5.3700                 5.4010
 IR Inten    --     15.1976               115.6398               327.8322

                     88                     89                     90
                      A                      A                      A
 Frequencies --   2955.4340              2974.6153              2976.5403
 Red. masses --      1.0507                 1.0546                 1.0538
 Frc consts  --      5.4071                 5.4977                 5.5007
 IR Inten    --      0.0839               760.8622                 0.0294

                     91                     92                     93
                      A                      A                      A
 Frequencies --   3022.0790              3022.5027              3026.7914
 Red. masses --      1.0866                 1.0866                 1.0871
 Frc consts  --      5.8472                 5.8486                 5.8682
 IR Inten    --      0.0017               130.2871               105.6910

                     94                     95                     96
                      A                      A                      A
 Frequencies --   3027.0996              3070.6720              3070.8325
 Red. masses --      1.0873                 1.0746                 1.0746
 Frc consts  --      5.8704                 5.9698                 5.9706
 IR Inten    --      0.0013                 0.9021                73.5223

                     97                     98                     99
                      A                      A                      A
 Frequencies --   3094.8501              3094.8841              3097.7448
 Red. masses --      1.0992                 1.0992                 1.0984
 Frc consts  --      6.2031                 6.2032                 6.2101
 IR Inten    --      0.0199                 0.0088                47.9668

                    100                    101                    102
                      A                      A                      A
 Frequencies --   3098.2163              3110.7284              3110.8177
 Red. masses --      1.0981                 1.1021                 1.1020
 Frc consts  --      6.2106                 6.2831                 6.2834
 IR Inten    --      0.0002                 6.1209                85.1592

 - Thermochemistry -
 -------------------
 Temperature   298.150 Kelvin.  Pressure   1.00000 Atm.
 Atom     1 has atomic number  6 and mass  12.00000

 Molecular mass:   288.06839 amu.
 Principal axes and moments of inertia in atomic units:
                           1         2         3
     Eigenvalues --  3653.550326483.094239331.77116
           X            0.85958   0.35768   0.36496
           Y           -0.34799  -0.11328   0.93063
           Z           -0.37421   0.92695  -0.02710
 This molecule is an asymmetric top.
 Rotational symmetry number  1.
 Warning -- assumption of classical behavior for rotation
           may cause significant error
 Rotational temperatures (Kelvin)      0.02371     0.01336     0.00928
 Rotational constants (GHZ):           0.49397     0.27838     0.19340
 Zero-point vibrational energy     746304.3 (Joules/Mol)
                                  178.37100 (Kcal/Mol)
 Warning -- explicit consideration of  34 degrees of freedom as
           vibrations may cause significant error
 Vibrational temperatures:     23.00    61.39    70.67   116.24   140.80
          (Kelvin)            253.83   304.02   319.58   323.31   343.07
                              344.26   355.98   382.00   393.94   398.07
                              424.93   449.94   455.98   463.58   477.68
                              502.19   543.38   558.82   559.36   569.00
                              573.58   596.67   599.88   631.52   693.69
                              711.81   759.77   785.62   850.98   931.81
                             1050.16  1056.87  1088.05  1111.59  1169.08
                             1204.40  1303.55  1317.49  1317.77  1330.08
                             1332.96  1372.18  1372.27  1422.64  1478.58
                             1510.47  1511.21  1511.44  1567.15  1614.38
                             1730.11  1731.20  1738.97  1744.26  1795.51
                             1804.70  1930.47  1935.91  1935.99  1936.06
                             1964.06  1972.68  2003.42  2010.96  2021.12
                             2050.68  2094.25  2094.60  2125.42  2131.19
                             2141.60  2141.78  2145.66  2147.59  2183.53
                             2183.65  2202.55  2204.84  2240.63  4241.57
                             4241.64  4250.75  4252.21  4279.81  4282.58
                             4348.10  4348.71  4354.88  4355.32  4418.01
                             4418.24  4452.80  4452.85  4456.96  4457.64
                             4475.64  4475.77

 Zero-point correction=                           0.284252 (Hartree/Particle)
 Thermal correction to Energy=                    0.303551
 Thermal correction to Enthalpy=                  0.304495
 Thermal correction to Gibbs Free Energy=         0.237180
 Sum of electronic and zero-point Energies=          -1615.094186
 Sum of electronic and thermal Energies=             -1615.074888
 Sum of electronic and thermal Enthalpies=           -1615.073944
 Sum of electronic and thermal Free Energies=        -1615.141259

                     E (Thermal)             CV                S
                      KCal/Mol        Cal/Mol-Kelvin    Cal/Mol-Kelvin
 Total                  190.481             74.996            141.676
 Electronic               0.000              0.000              0.000
 Translational            0.889              2.981             42.872
 Rotational               0.889              2.981             33.757
 Vibrational            188.703             69.034             65.047
 Vibration     1          0.593              1.986              7.079
 Vibration     2          0.595              1.980              5.131
 Vibration     3          0.595              1.978              4.853
 Vibration     4          0.600              1.962              3.872
 Vibration     5          0.603              1.951              3.496
 Vibration     6          0.628              1.871              2.366
 Vibration     7          0.643              1.824              2.032
 Vibration     8          0.648              1.807              1.942
 Vibration     9          0.649              1.803              1.921
 Vibration    10          0.656              1.782              1.814
 Vibration    11          0.657              1.780              1.808
 Vibration    12          0.661              1.767              1.749
 Vibration    13          0.671              1.736              1.625
 Vibration    14          0.676              1.722              1.572
 Vibration    15          0.678              1.717              1.554
 Vibration    16          0.690              1.682              1.443
 Vibration    17          0.701              1.649              1.348
 Vibration    18          0.704              1.641              1.326
 Vibration    19          0.707              1.631              1.299
 Vibration    20          0.714              1.612              1.250
 Vibration    21          0.726              1.577              1.171
 Vibration    22          0.748              1.518              1.048
 Vibration    23          0.757              1.495              1.006
 Vibration    24          0.757              1.494              1.005
 Vibration    25          0.762              1.480              0.979
 Vibration    26          0.765              1.473              0.968
 Vibration    27          0.778              1.438              0.910
 Vibration    28          0.780              1.433              0.902
 Vibration    29          0.799              1.385              0.830
 Vibration    30          0.838              1.290              0.704
 Vibration    31          0.850              1.262              0.671
 Vibration    32          0.883              1.188              0.592
 Vibration    33          0.901              1.148              0.552
 Vibration    34          0.949              1.050              0.465

                           ! Non-Optimized Parameters !
 Normal termination of Gaussian 16 at Mon Dec 18 02:53:29 2023.
