 Q-Chem 5.4, Q-Chem, Inc., Pleasanton, CA (2021)
 Q-Chem 5.4.0 for Intel X86 EM64T Linux

User input:
--------------------------------------------------------------
$molecule
0 1
I                 -2.8062370000     -2.0734520000      0.0042450000
C                 -1.1866600000     -0.7439190000      0.0002450000
C                 -1.3591830000      0.5853330000     -0.0163410000
C                 -0.2019830000      1.5118870000     -0.0189250000
O                 -0.3631960000      2.7202600000     -0.0340380000
C                  1.1577430000      0.9215270000     -0.0025490000
C                  1.3404370000     -0.4064380000      0.0141330000
I                  3.2519420000     -1.2640150000      0.0377010000
C                  0.1825790000     -1.3668940000      0.0170830000
O                  0.3423760000     -2.5646080000      0.0319820000
H                 -2.3362900000      1.0521950000     -0.0285930000
H                  1.9784690000      1.6281260000     -0.0049430000
$end
$rem
MAX_SCF_CYCLES=200
BASIS  =  6-311++G(d,p)
GUI  =  2
JOB_TYPE  =  SP
METHOD  =  B3LYP
SOLVENT_METHOD = PCM
$end
$pcm
theory = CPCM
$end
$solvent
dielectric 37.219
opticaldielectric 1.43
$end

--------------------------------------------------------------

             Standard Nuclear Orientation (Angstroms)
    I     Atom           X                Y                Z
 ----------------------------------------------------------------
    1      I      -2.8062370000    -2.0734520000     0.0042450000
    2      C      -1.1866600000    -0.7439190000     0.0002450000
    3      C      -1.3591830000     0.5853330000    -0.0163410000
    4      C      -0.2019830000     1.5118870000    -0.0189250000
    5      O      -0.3631960000     2.7202600000    -0.0340380000
    6      C       1.1577430000     0.9215270000    -0.0025490000
    7      C       1.3404370000    -0.4064380000     0.0141330000
    8      I       3.2519420000    -1.2640150000     0.0377010000
    9      C       0.1825790000    -1.3668940000     0.0170830000
   10      O       0.3423760000    -2.5646080000     0.0319820000
   11      H      -2.3362900000     1.0521950000    -0.0285930000
   12      H       1.9784690000     1.6281260000    -0.0049430000
 ----------------------------------------------------------------

    9  -14219.3969312779      3.24e-06  Convergence criterion met
 Total energy in the final basis set =   -14219.3969312779

                    Orbital Energies (a.u.)
 --------------------------------------------------------------

 Alpha MOs
 -- Occupied --
*****************-176.3168-176.3167-165.7205-165.7204-165.7185-165.7184
********-165.7182 -35.8132 -35.8131 -31.3064 -31.3063 -31.3006 -31.3005
-31.3001 -31.3000 -22.9569 -22.9568 -22.9556 -22.9555 -22.9553 -22.9552
-22.9512 -22.9512 -22.9511 -22.9511 -19.1633 -19.1539 -10.3159 -10.3005
-10.2642 -10.2641 -10.2252 -10.2252  -6.3626  -6.3625  -4.7750  -4.7749
 -4.7606  -4.7606  -4.7596  -4.7594  -2.0410  -2.0409  -2.0363  -2.0363
 -2.0356  -2.0355  -2.0233  -2.0232  -2.0232  -2.0230  -1.1002  -1.0843
 -0.8846  -0.8215  -0.7349  -0.6934  -0.6771  -0.6087  -0.6046  -0.5466
 -0.5233  -0.4833  -0.4709  -0.4589  -0.4535  -0.4376  -0.4127  -0.3922
 -0.3502  -0.3437  -0.3131  -0.2984  -0.2851  -0.2784  -0.2752  -0.2667

          Ground-State Mulliken Net Atomic Charges

     Atom                 Charge (a.u.)
  ----------------------------------------
      1 I                     0.071861
      2 C                     1.192993
      3 C                    -0.394887
      4 C                    -0.098220
      5 O                    -0.296422
      6 C                    -0.378376
      7 C                     1.153965
      8 I                     0.076358
      9 C                    -1.681041
     10 O                    -0.160157
     11 H                     0.256762
     12 H                     0.257163
  ----------------------------------------
  Sum of atomic charges =     0.000000

                    Cartesian Multipole Moments
 -----------------------------------------------------------------
    Charge (ESU x 10^10)
                 0.0000
    Dipole Moment (Debye)
         X      -0.0722      Y       0.5987      Z      -0.0069
       Tot       0.6031
    Quadrupole Moments (Debye-Ang)
        XX     -91.8997     XY       3.7520     YY    -119.5874
        XZ       0.0242     YZ       0.2348     ZZ    -101.4685

 Total job time:  46.33s(wall), 92.50s(cpu)
        *  Thank you very much for using Q-Chem.  Have a nice day.  *
