 Gaussian 16, Revision A.03,
 Gaussian 16:  ES64L-G16RevA.03 25-Dec-2016

 --------------------------------------
 #P UB3LYP/6-311++G(d,p) nosym opt freq
 --------------------------------------

 -------
 Radical
 -------
 Symbolic Z-matrix:
 Charge = -1 Multiplicity = 2

 SCF Done:  E(UB3LYP) =  -538.938443301     A.U. after   21 cycles
 SCF Done:  E(UB3LYP) =  -538.938443309     A.U. after    9 cycles
 SCF Done:  E(UB3LYP) =  -538.938443262     A.U. after   10 cycles
 SCF Done:  E(UB3LYP) =  -538.938443319     A.U. after   10 cycles
 Optimization completed.
    -- Stationary point found.
 Normal termination of Gaussian 16 at Sat Jan  6 05:47:21 2024.

 ----------------------------------------------------------------------
 #P Geom=AllCheck Guess=TCheck SCRF=Check GenChk UB3LYP/6-311++G(d,p) F
 req
 ----------------------------------------------------------------------

 Structure from the checkpoint file:  "033-rad.chk"
 -------
 Radical
 -------
 Charge = -1 Multiplicity = 2

                          Input orientation:
 ---------------------------------------------------------------------
 Center     Atomic      Atomic             Coordinates (Angstroms)
 Number     Number       Type             X           Y           Z
 ---------------------------------------------------------------------
      1          6           0       -1.795514    1.124063    0.636061
      2          6           0       -1.141639   -0.093772   -0.061424
      3          6           0       -1.684650   -1.367853    0.613320
      4          6           0       -1.574998   -0.126432   -1.547449
      5          6           0        0.391964    0.015538    0.030843
      6          6           0        1.154241   -0.943647    0.657631
      7          6           0        2.598773   -0.902014    0.779454
      8          8           0        3.247848   -1.815700    1.368695
      9          6           0        3.234634    0.249485    0.183257
     10          6           0        2.502744    1.218664   -0.446101
     11          6           0        1.061308    1.178371   -0.568063
     12          8           0        0.439365    2.110021   -1.164649
     13          1           0       -2.889008    1.062823    0.562128
     14          1           0       -1.528533    1.143854    1.697992
     15          1           0       -1.457843    2.051279    0.173726
     16          1           0       -2.775844   -1.392092    0.516843
     17          1           0       -1.442223   -1.399319    1.679608
     18          1           0       -1.287440   -2.275512    0.149513
     19          1           0       -1.150125   -1.002236   -2.049266
     20          1           0       -2.668277   -0.188821   -1.623547
     21          1           0       -1.232000    0.771181   -2.061372
     22          1           0        0.696203   -1.815379    1.110959
     23          1           0        4.317188    0.313145    0.255779
     24          1           0        2.983825    2.084355   -0.893938
 ---------------------------------------------------------------------

 SCF Done:  E(UB3LYP) =  -538.938443319     A.U. after    1 cycles

 Alpha  occ. eigenvalues --  -18.93160 -18.93050 -10.07869 -10.07476 -10.06671
 Alpha  occ. eigenvalues --  -10.04555 -10.03763 -10.03404 -10.03402 -10.02544
 Alpha  occ. eigenvalues --  -10.02442 -10.02295  -0.85337  -0.84878  -0.70693
 Alpha  occ. eigenvalues --   -0.67014  -0.60037  -0.57048  -0.56315  -0.53870
 Alpha  occ. eigenvalues --   -0.47553  -0.43901  -0.40101  -0.34470  -0.33767
 Alpha  occ. eigenvalues --   -0.32208  -0.32077  -0.30327  -0.29611  -0.28240
 Alpha  occ. eigenvalues --   -0.26455  -0.25531  -0.25519  -0.24683  -0.24533
 Alpha  occ. eigenvalues --   -0.22385  -0.22360  -0.21238  -0.20818  -0.20249
 Alpha  occ. eigenvalues --   -0.13732  -0.11826  -0.09505  -0.09118  -0.01924
 Alpha virt. eigenvalues --    0.08290   0.10572   0.10632   0.10665   0.11655
 Alpha virt. eigenvalues --    0.12398   0.12846   0.13454   0.13692   0.14681
 Alpha virt. eigenvalues --    0.14725   0.15703   0.16232   0.16971   0.17450

  Beta  occ. eigenvalues --  -18.92447 -18.92288 -10.07734 -10.07387 -10.06678
  Beta  occ. eigenvalues --  -10.04556 -10.03667 -10.03399 -10.03397 -10.02435
  Beta  occ. eigenvalues --  -10.02315 -10.02176  -0.84096  -0.83550  -0.70496
  Beta  occ. eigenvalues --   -0.66514  -0.59773  -0.57010  -0.56297  -0.52857
  Beta  occ. eigenvalues --   -0.47221  -0.43563  -0.39873  -0.34334  -0.33554
  Beta  occ. eigenvalues --   -0.32036  -0.31865  -0.30223  -0.29420  -0.27769
  Beta  occ. eigenvalues --   -0.26287  -0.24901  -0.24891  -0.24287  -0.23663
  Beta  occ. eigenvalues --   -0.22069  -0.21276  -0.20682  -0.20119  -0.19380
  Beta  occ. eigenvalues --   -0.11043  -0.10144  -0.08828  -0.08452
  Beta virt. eigenvalues --    0.05423   0.08290   0.10574   0.10643   0.10692
  Beta virt. eigenvalues --    0.11659   0.12867   0.12941   0.13458   0.14378
  Beta virt. eigenvalues --    0.14692   0.14924   0.15728   0.16964   0.16984

 Mulliken charges and spin densities:
               1          2
     1  C   -0.689970   0.012487
     2  C    0.678859  -0.020469
     3  C   -0.514044   0.000353
     4  C   -0.689903   0.012486
     5  C    1.312088   0.119855
     6  C   -0.463260   0.026679
     7  C   -0.840123   0.089148
     8  O   -0.407623   0.269523
     9  C    0.268604   0.105000
    10  C    0.069206   0.111461
    11  C   -1.025204   0.043821
    12  O   -0.373474   0.259186
    13  H    0.108352   0.000772
    14  H    0.112761   0.000809
    15  H    0.197581  -0.003054
    16  H    0.139899   0.000018
    17  H    0.119949  -0.000434
    18  H    0.119979  -0.000434
    19  H    0.112728   0.000810
    20  H    0.108312   0.000771
    21  H    0.197586  -0.003054
    22  H    0.171513  -0.009249
    23  H    0.139452  -0.007922
    24  H    0.146732  -0.008565
 Sum of Mulliken charges =  -1.00000   1.00000

 Dipole moment (field-independent basis, Debye):
    X=             -7.7270    Y=             -0.1766    Z=             -0.6800  Tot=              7.7588
 Quadrupole moment (field-independent basis, Debye-Ang):
   XX=           -106.2443   YY=            -97.4063   ZZ=            -87.0507
   XY=             12.6379   XZ=             -9.9557   YZ=             11.5948

  Exact polarizability: 176.783 -14.727 146.549  16.469 -29.781 115.922
 Approx polarizability: 242.889 -43.362 247.059  34.944 -64.139 183.087

                      1                      2                      3
                      A                      A                      A
 Frequencies --     69.4707               101.2622               161.2404
 Red. masses --      3.6086                 4.1492                 5.0306
 Frc consts  --      0.0103                 0.0251                 0.0771
 IR Inten    --      0.6017                 4.8297                 6.3958

                      4                      5                      6
                      A                      A                      A
 Frequencies --    206.7596               234.0505               270.4407
 Red. masses --      4.0900                 1.0934                 1.0952
 Frc consts  --      0.1030                 0.0353                 0.0472
 IR Inten    --      1.2509                 0.1352                 0.6074

                      7                      8                      9
                      A                      A                      A
 Frequencies --    280.0361               290.2412               324.4868
 Red. masses --      3.3506                 3.3840                 1.0429
 Frc consts  --      0.1548                 0.1680                 0.0647
 IR Inten    --      3.0334                 0.2418                 0.0597

                     10                     11                     12
                      A                      A                      A
 Frequencies --    328.2713               343.3730               391.8187
 Red. masses --      3.0981                 3.7988                 2.4201
 Frc consts  --      0.1967                 0.2639                 0.2189
 IR Inten    --      7.1395                 0.2058                 0.1111

                     13                     14                     15
                      A                      A                      A
 Frequencies --    406.0894               427.2107               474.3165
 Red. masses --      3.1692                 4.8880                 6.9454
 Frc consts  --      0.3079                 0.5256                 0.9206
 IR Inten    --      2.3059                 6.1341                 0.0644

                     16                     17                     18
                      A                      A                      A
 Frequencies --    487.2539               516.2508               592.3144
 Red. masses --      2.7542                 3.7699                 3.7281
 Frc consts  --      0.3853                 0.5920                 0.7706
 IR Inten    --      3.9369                 0.6415                 0.3977

                     19                     20                     21
                      A                      A                      A
 Frequencies --    634.5539               680.2225               758.3420
 Red. masses --      2.8916                 6.0739                 2.8577
 Frc consts  --      0.6860                 1.6558                 0.9683
 IR Inten    --      1.4812                 2.1933                 0.4043

                     22                     23                     24
                      A                      A                      A
 Frequencies --    809.0700               813.5453               823.2154
 Red. masses --      3.7726                 4.5604                 2.1482
 Frc consts  --      1.4550                 1.7783                 0.8577
 IR Inten    --      8.8605                26.6053                24.0085

                     25                     26                     27
                      A                      A                      A
 Frequencies --    888.2630               917.2514               924.4052
 Red. masses --      1.6267                 3.3185                 1.7694
 Frc consts  --      0.7562                 1.6450                 0.8908
 IR Inten    --     25.3249                 5.6206                 0.4301

                     28                     29                     30
                      A                      A                      A
 Frequencies --    932.1155               946.9008               957.7866
 Red. masses --      1.7558                 1.2777                 1.2041
 Frc consts  --      0.8988                 0.6750                 0.6508
 IR Inten    --      1.7229                 0.3062                 0.2836

                     31                     32                     33
                      A                      A                      A
 Frequencies --   1030.8662              1048.7085              1059.9442
 Red. masses --      1.8562                 1.3810                 1.8146
 Frc consts  --      1.1622                 0.8949                 1.2012
 IR Inten    --     36.4169                 0.0940                20.2803

                     34                     35                     36
                      A                      A                      A
 Frequencies --   1106.3247              1204.6722              1214.8290
 Red. masses --      1.5773                 2.2120                 2.6738
 Frc consts  --      1.1374                 1.8914                 2.3249
 IR Inten    --      4.0669                 6.5638                 4.7360

                     37                     38                     39
                      A                      A                      A
 Frequencies --   1222.2943              1266.0787              1268.0793
 Red. masses --      2.6198                 2.1734                 1.8015
 Frc consts  --      2.3061                 2.0527                 1.7068
 IR Inten    --     14.4155                 1.7557                20.6203

                     40                     41                     42
                      A                      A                      A
 Frequencies --   1342.9921              1372.7656              1381.0834
 Red. masses --      2.1734                 1.2116                 1.2468
 Frc consts  --      2.3096                 1.3453                 1.4012
 IR Inten    --     15.8574                12.1279                17.4740

                     43                     44                     45
                      A                      A                      A
 Frequencies --   1408.6790              1428.1570              1470.4520
 Red. masses --      1.2507                 4.8111                 1.0468
 Frc consts  --      1.4623                 5.7816                 1.3335
 IR Inten    --     30.4995                56.8227                 0.2620

                     46                     47                     48
                      A                      A                      A
 Frequencies --   1476.9500              1492.7455              1494.5331
 Red. masses --      3.1741                 1.2447                 1.0464
 Frc consts  --      4.0795                 1.6341                 1.3771
 IR Inten    --     30.0994                24.3507                 0.8919

                     49                     50                     51
                      A                      A                      A
 Frequencies --   1498.9630              1508.1878              1510.7225
 Red. masses --      1.2314                 4.8127                 1.0519
 Frc consts  --      1.6302                 6.4498                 1.4145
 IR Inten    --     13.3876                57.3531                 3.5866

                     52                     53                     54
                      A                      A                      A
 Frequencies --   1521.5791              1532.4159              1637.5125
 Red. masses --      2.5014                 1.3070                 6.6382
 Frc consts  --      3.4121                 1.8083                10.4875
 IR Inten    --    293.8210                74.4451                10.3954

                     55                     56                     57
                      A                      A                      A
 Frequencies --   2989.6825              2994.9364              3010.1746
 Red. masses --      1.0432                 1.0422                 1.0365
 Frc consts  --      5.4939                 5.5078                 5.5337
 IR Inten    --     48.8537                97.3667                97.1517

                     58                     59                     60
                      A                      A                      A
 Frequencies --   3050.4436              3052.8159              3065.5538
 Red. masses --      1.0958                 1.0959                 1.0988
 Frc consts  --      6.0078                 6.0178                 6.0839
 IR Inten    --     36.1838                24.2265                89.6131

                     61                     62                     63
                      A                      A                      A
 Frequencies --   3080.3836              3118.9183              3121.4728
 Red. masses --      1.1015                 1.0973                 1.0966
 Frc consts  --      6.1580                 6.2892                 6.2955
 IR Inten    --     44.6619                 0.0085                11.6843

                     64                     65                     66
                      A                      A                      A
 Frequencies --   3129.2778              3152.0989              3172.1809
 Red. masses --      1.0849                 1.0947                 1.0874
 Frc consts  --      6.2591                 6.4082                 6.4471
 IR Inten    --     21.7659                51.8070                13.4125

 - Thermochemistry -
 -------------------
 Temperature   298.150 Kelvin.  Pressure   1.00000 Atm.
 Atom     1 has atomic number  6 and mass  12.00000

 Molecular mass:   164.08373 amu.
 Principal axes and moments of inertia in atomic units:
                           1         2         3
     Eigenvalues --  1227.602302422.691863250.91919
           X            0.96147   0.26072  -0.08723
           Y           -0.18520   0.84871   0.49537
           Z            0.20318  -0.46013   0.86429
 This molecule is an asymmetric top.
 Rotational symmetry number  1.
 Warning -- assumption of classical behavior for rotation
           may cause significant error
 Rotational temperatures (Kelvin)      0.07056     0.03575     0.02664
 Rotational constants (GHZ):           1.47014     0.74493     0.55515
 Zero-point vibrational energy     510973.1 (Joules/Mol)
                                  122.12550 (Kcal/Mol)
 Warning -- explicit consideration of  18 degrees of freedom as
           vibrations may cause significant error
 Vibrational temperatures:     99.95   145.69   231.99   297.48   336.75
          (Kelvin)            389.10   402.91   417.59   466.86   472.31
                              494.04   563.74   584.27   614.66   682.44
                              701.05   742.77   852.21   912.98   978.69
                             1091.08  1164.07  1170.51  1184.42  1278.01
                             1319.72  1330.01  1341.11  1362.38  1378.04
                             1483.19  1508.86  1525.02  1591.75  1733.25
                             1747.87  1758.61  1821.60  1824.48  1932.27
                             1975.10  1987.07  2026.77  2054.80  2115.65
                             2125.00  2147.73  2150.30  2156.67  2169.95
                             2173.59  2189.21  2204.80  2356.02  4301.49
                             4309.05  4330.97  4388.91  4392.32  4410.65
                             4431.98  4487.43  4491.10  4502.33  4535.17
                             4564.06

 Zero-point correction=                           0.194619 (Hartree/Particle)
 Thermal correction to Energy=                    0.206048
 Thermal correction to Enthalpy=                  0.206993
 Thermal correction to Gibbs Free Energy=         0.157620
 Sum of electronic and zero-point Energies=           -538.743824
 Sum of electronic and thermal Energies=              -538.732395
 Sum of electronic and thermal Enthalpies=            -538.731451
 Sum of electronic and thermal Free Energies=         -538.780823

                     E (Thermal)             CV                S
                      KCal/Mol        Cal/Mol-Kelvin    Cal/Mol-Kelvin
 Total                  129.297             45.222            103.913
 Electronic               0.000              0.000              1.377
 Translational            0.889              2.981             41.194
 Rotational               0.889              2.981             30.648
 Vibrational            127.520             39.261             30.693
 Vibration     1          0.598              1.969              4.168
 Vibration     2          0.604              1.948              3.430
 Vibration     3          0.622              1.890              2.535
 Vibration     4          0.641              1.830              2.072
 Vibration     5          0.654              1.789              1.848
 Vibration     6          0.674              1.728              1.593
 Vibration     7          0.680              1.711              1.533
 Vibration     8          0.686              1.692              1.473
 Vibration     9          0.709              1.626              1.287
 Vibration    10          0.711              1.619              1.269
 Vibration    11          0.722              1.589              1.196
 Vibration    12          0.759              1.488              0.993
 Vibration    13          0.771              1.457              0.941
 Vibration    14          0.789              1.411              0.868
 Vibration    15          0.831              1.307              0.726
 Vibration    16          0.843              1.278              0.691
 Vibration    17          0.871              1.214              0.619
 Vibration    18          0.950              1.048              0.463

 Optimization completed.
    -- Stationary point found.
 Normal termination of Gaussian 16 at Sat Jan  6 06:06:14 2024.
