 Q-Chem 5.4, Q-Chem, Inc., Pleasanton, CA (2021)
 Q-Chem 5.4.0 for Intel X86 EM64T Linux

User input:
--------------------------------------------------------------
$molecule
-1 2
C                 -1.7955140000      1.1240630000      0.6360610000
C                 -1.1416390000     -0.0937720000     -0.0614240000
C                 -1.6846500000     -1.3678530000      0.6133200000
C                 -1.5749980000     -0.1264320000     -1.5474490000
C                  0.3919640000      0.0155380000      0.0308430000
C                  1.1542410000     -0.9436470000      0.6576310000
C                  2.5987730000     -0.9020140000      0.7794540000
O                  3.2478480000     -1.8157000000      1.3686950000
C                  3.2346340000      0.2494850000      0.1832570000
C                  2.5027440000      1.2186640000     -0.4461010000
C                  1.0613080000      1.1783710000     -0.5680630000
O                  0.4393650000      2.1100210000     -1.1646490000
H                 -2.8890080000      1.0628230000      0.5621280000
H                 -1.5285330000      1.1438540000      1.6979920000
H                 -1.4578430000      2.0512790000      0.1737260000
H                 -2.7758440000     -1.3920920000      0.5168430000
H                 -1.4422230000     -1.3993190000      1.6796080000
H                 -1.2874400000     -2.2755120000      0.1495130000
H                 -1.1501250000     -1.0022360000     -2.0492660000
H                 -2.6682770000     -0.1888210000     -1.6235470000
H                 -1.2320000000      0.7711810000     -2.0613720000
H                  0.6962030000     -1.8153790000      1.1109590000
H                  4.3171880000      0.3131450000      0.2557790000
H                  2.9838250000      2.0843550000     -0.8939380000
$end

$rem
BASIS  =  6-311++G(d,p)
GUI  =  2
JOB_TYPE  =  SP
METHOD  =  B3LYP
SCF_CONVERGENCE  = 8
SOLVENT_METHOD = sm12
$end

$smx
solvent dimethylformamide
charges CM5
$end

--------------------------------------------------------------

             Standard Nuclear Orientation (Angstroms)
    I     Atom           X                Y                Z
 ----------------------------------------------------------------
    1      C      -1.7955140000     1.1240630000     0.6360610000
    2      C      -1.1416390000    -0.0937720000    -0.0614240000
    3      C      -1.6846500000    -1.3678530000     0.6133200000
    4      C      -1.5749980000    -0.1264320000    -1.5474490000
    5      C       0.3919640000     0.0155380000     0.0308430000
    6      C       1.1542410000    -0.9436470000     0.6576310000
    7      C       2.5987730000    -0.9020140000     0.7794540000
    8      O       3.2478480000    -1.8157000000     1.3686950000
    9      C       3.2346340000     0.2494850000     0.1832570000
   10      C       2.5027440000     1.2186640000    -0.4461010000
   11      C       1.0613080000     1.1783710000    -0.5680630000
   12      O       0.4393650000     2.1100210000    -1.1646490000
   13      H      -2.8890080000     1.0628230000     0.5621280000
   14      H      -1.5285330000     1.1438540000     1.6979920000
   15      H      -1.4578430000     2.0512790000     0.1737260000
   16      H      -2.7758440000    -1.3920920000     0.5168430000
   17      H      -1.4422230000    -1.3993190000     1.6796080000
   18      H      -1.2874400000    -2.2755120000     0.1495130000
   19      H      -1.1501250000    -1.0022360000    -2.0492660000
   20      H      -2.6682770000    -0.1888210000    -1.6235470000
   21      H      -1.2320000000     0.7711810000    -2.0613720000
   22      H       0.6962030000    -1.8153790000     1.1109590000
   23      H       4.3171880000     0.3131450000     0.2557790000
   24      H       2.9838250000     2.0843550000    -0.8939380000
 ----------------------------------------------------------------

   17    -538.9367207381      6.70e-09  Convergence criterion met
 Total energy in the final basis set =     -539.0196493306

                    Orbital Energies (a.u.)
 --------------------------------------------------------------

 Alpha MOs
 -- Occupied --
-19.0768 -19.0766 -10.2224 -10.2206 -10.1947 -10.1796 -10.1706 -10.1695
-10.1665 -10.1641 -10.1600 -10.1600  -0.9980  -0.9949  -0.8405  -0.8094
 -0.7416  -0.6934  -0.6889  -0.6811  -0.6149  -0.5796  -0.5351  -0.4822
 -0.4754  -0.4602  -0.4437  -0.4389  -0.4308  -0.4167  -0.4022  -0.3909
 -0.3906  -0.3789  -0.3748  -0.3653  -0.3623  -0.3412  -0.3390  -0.3310
 -0.2824  -0.2621  -0.2398  -0.2354  -0.1647

 Beta MOs
 -- Occupied --
-19.0693 -19.0692 -10.2212 -10.2197 -10.1947 -10.1785 -10.1694 -10.1683
-10.1655 -10.1642 -10.1599 -10.1599  -0.9851  -0.9818  -0.8373  -0.8055
 -0.7391  -0.6920  -0.6887  -0.6719  -0.6114  -0.5762  -0.5330  -0.4805
 -0.4718  -0.4580  -0.4429  -0.4370  -0.4299  -0.4064  -0.3956  -0.3881
 -0.3792  -0.3777  -0.3703  -0.3623  -0.3420  -0.3396  -0.3348  -0.3305
 -0.2551  -0.2458  -0.2329  -0.2289

          Ground-State Mulliken Net Atomic Charges

     Atom                 Charge (a.u.)    Spin (a.u.)
  --------------------------------------------------------
      1 C                    -0.465873       0.012797
      2 C                     1.189471      -0.017928
      3 C                     0.344859       0.000601
      4 C                    -0.466272       0.012846
      5 C                     0.755090       0.126534
      6 C                    -1.132166       0.008846
      7 C                    -1.302524       0.092832
      8 O                    -0.377656       0.265273
      9 C                     0.113590       0.101670
     10 C                    -0.161179       0.119753
     11 C                    -1.331772       0.034602
     12 O                    -0.264952       0.270769
     13 H                     0.277632       0.000617
     14 H                     0.096066       0.000792
     15 H                     0.096034      -0.003159
     16 H                     0.331666       0.000105
     17 H                     0.136775      -0.000264
     18 H                     0.136784      -0.000267
     19 H                     0.096172       0.000794
     20 H                     0.277770       0.000638
     21 H                     0.095738      -0.003148
     22 H                     0.128950      -0.008335
     23 H                     0.208221      -0.007543
     24 H                     0.217575      -0.008824
  --------------------------------------------------------
  Sum of atomic charges =    -1.000000

                    Cartesian Multipole Moments
 -----------------------------------------------------------------
    Charge (ESU x 10^10)
                -4.8032
    Dipole Moment (Debye)
         X      -8.6744      Y      -0.2199      Z      -0.7501
       Tot       8.7095
    Quadrupole Moments (Debye-Ang)
        XX    -105.6047     XY      13.3598     YY     -97.2492
        XZ     -10.3130     YZ      11.6319     ZZ     -87.0186

 Total job time:  412.25s(wall), 3196.10s(cpu)
        *  Thank you very much for using Q-Chem.  Have a nice day.  *
