 Q-Chem 5.4, Q-Chem, Inc., Pleasanton, CA (2021)
 Q-Chem 5.4.0 for Intel X86 EM64T Linux

User input:
--------------------------------------------------------------
$molecule
-1 2
I                 -3.3508280000     -1.0693510000     -0.1519300000
C                 -1.3618270000     -0.3581560000     -0.0606390000
C                 -1.0236760000      0.9685410000     -0.0262680000
I                 -2.4289350000      2.5480060000     -0.0582190000
C                  0.3646690000      1.4305000000      0.0369600000
O                  0.6717460000      2.6358440000      0.0683420000
C                  1.3618170000      0.3582610000      0.0605700000
C                  1.0236130000     -0.9686210000      0.0261960000
I                  2.4288820000     -2.5480160000      0.0583800000
C                 -0.3645280000     -1.4304970000     -0.0371770000
O                 -0.6718180000     -2.6358110000     -0.0682960000
I                  3.3508840000      1.0693000000      0.1520800000
$end
$rem
MAX_SCF_CYCLES=200
BASIS  =  6-311++G(d,p)
GUI  =  2
JOB_TYPE  =  SP
METHOD  =  B3LYP
SOLVENT_METHOD = COSMO
$end
$solvent
dielectric 37.219
opticaldielectric 1.43
$end

--------------------------------------------------------------

             Standard Nuclear Orientation (Angstroms)
    I     Atom           X                Y                Z
 ----------------------------------------------------------------
    1      I       2.9846915281    -1.8671510543    -0.0000233317
    2      C       1.2319243827    -0.6847532071     0.0001095848
    3      C       1.2319733710     0.6847913857     0.0001097307
    4      I       2.9849275818     1.8670074941    -0.0000226229
    5      C       0.0000023363     1.4767213725     0.0001585569
    6      O       0.0001801487     2.7209621912    -0.0000018637
    7      C      -1.2318771444     0.6848684969     0.0000722011
    8      C      -1.2319205419    -0.6848684697     0.0000700281
    9      I      -2.9848753022    -1.8670084515    -0.0000289048
   10      C      -0.0001213487    -1.4766713169     0.0001755912
   11      O      -0.0000947700    -2.7209290724     0.0000651327
   12      I      -2.9847545504     1.8671370207    -0.0000134484
 ----------------------------------------------------------------

    9  -28057.3115845652      6.57e-06  Convergence criterion met
 Total energy in the final basis set =   -28057.3115845652
    5  -28057.3830808380      2.62e-06  Convergence criterion met
 Total energy in the final basis set =   -28057.3830808380

                    Orbital Energies (a.u.)
 --------------------------------------------------------------

 Alpha MOs
 -- Occupied --
***********************************-176.2993-176.2993-176.2993-176.2993
********-165.7030-165.7030-165.7029-165.7010-165.7010-165.7010-165.7010
********-165.7008-165.7008-165.7008 -35.7958 -35.7958 -35.7958 -35.7958
-31.2888 -31.2888 -31.2888 -31.2888 -31.2832 -31.2832 -31.2832 -31.2832
-31.2827 -31.2827 -31.2827 -31.2827 -22.9393 -22.9393 -22.9393 -22.9393
-22.9381 -22.9381 -22.9381 -22.9381 -22.9378 -22.9378 -22.9378 -22.9377
-22.9338 -22.9338 -22.9338 -22.9338 -22.9338 -22.9338 -22.9338 -22.9338
-19.1047 -19.1047 -10.2604 -10.2604 -10.2341 -10.2341 -10.2334 -10.2334
 -6.3453  -6.3453  -6.3453  -6.3452  -4.7572  -4.7572  -4.7572  -4.7572
 -4.7437  -4.7437  -4.7437  -4.7437  -4.7424  -4.7424  -4.7424  -4.7424
 -2.0231  -2.0231  -2.0231  -2.0230  -2.0192  -2.0192  -2.0192  -2.0192
 -2.0181  -2.0181  -2.0181  -2.0181  -2.0064  -2.0064  -2.0064  -2.0064
 -2.0062  -2.0062  -2.0062  -2.0062  -1.0391  -1.0367  -0.8631  -0.7980
 -0.7270  -0.6922  -0.6716  -0.6333  -0.6294  -0.5745  -0.5590  -0.5211
 -0.4615  -0.4473  -0.4457  -0.4100  -0.3941  -0.3877  -0.3870  -0.3544
 -0.3431  -0.3289  -0.2892  -0.2878  -0.2800  -0.2799  -0.2767  -0.2687
 -0.2638  -0.2512  -0.2404  -0.2335  -0.1855

 Beta MOs
 -- Occupied --
***********************************-176.2993-176.2993-176.2993-176.2993
********-165.7030-165.7030-165.7030-165.7010-165.7010-165.7010-165.7010
********-165.7008-165.7008-165.7008 -35.7958 -35.7958 -35.7958 -35.7958
-31.2888 -31.2888 -31.2888 -31.2888 -31.2832 -31.2832 -31.2832 -31.2832
-31.2827 -31.2827 -31.2827 -31.2827 -22.9394 -22.9393 -22.9393 -22.9393
-22.9381 -22.9381 -22.9381 -22.9381 -22.9378 -22.9378 -22.9378 -22.9378
-22.9338 -22.9338 -22.9338 -22.9338 -22.9338 -22.9338 -22.9338 -22.9338
-19.0981 -19.0981 -10.2592 -10.2592 -10.2329 -10.2328 -10.2322 -10.2322
 -6.3452  -6.3452  -6.3452  -6.3452  -4.7572  -4.7572  -4.7572  -4.7572
 -4.7436  -4.7436  -4.7436  -4.7436  -4.7424  -4.7424  -4.7424  -4.7424
 -2.0231  -2.0231  -2.0231  -2.0231  -2.0192  -2.0192  -2.0191  -2.0191
 -2.0182  -2.0181  -2.0181  -2.0181  -2.0064  -2.0064  -2.0064  -2.0064
 -2.0062  -2.0062  -2.0062  -2.0061  -1.0278  -1.0252  -0.8571  -0.7953
 -0.7181  -0.6901  -0.6701  -0.6305  -0.6289  -0.5702  -0.5559  -0.5187
 -0.4563  -0.4384  -0.4297  -0.3915  -0.3869  -0.3850  -0.3830  -0.3519
 -0.3376  -0.3041  -0.2889  -0.2860  -0.2786  -0.2763  -0.2721  -0.2640
 -0.2541  -0.2510  -0.2362  -0.2316

          Ground-State Mulliken Net Atomic Charges

     Atom                 Charge (a.u.)    Spin (a.u.)
  --------------------------------------------------------
      1 I                     0.015329       0.004075
      2 C                     0.734828       0.093750
      3 C                     0.734259       0.093739
      4 I                     0.015346       0.004069
      5 C                    -1.696933       0.065846
      6 O                    -0.304436       0.238314
      7 C                     0.735544       0.093959
      8 C                     0.735965       0.093859
      9 I                     0.015307       0.004084
     10 C                    -1.696086       0.065870
     11 O                    -0.304415       0.238344
     12 I                     0.015292       0.004090
  --------------------------------------------------------
  Sum of atomic charges =    -1.000000

                    Cartesian Multipole Moments
 -----------------------------------------------------------------
    Charge (ESU x 10^10)
                -4.8032
    Dipole Moment (Debye)
         X      -0.0000      Y       0.0002      Z      -0.0003
       Tot       0.0003
    Quadrupole Moments (Debye-Ang)
        XX    -168.0076     XY      -0.0010     YY    -198.3376
        XZ      -0.0002     YZ       0.0017     ZZ    -162.6928

 Total job time:  58.82s(wall), 403.38s(cpu)
        *  Thank you very much for using Q-Chem.  Have a nice day.  *
