 Q-Chem 5.4, Q-Chem, Inc., Pleasanton, CA (2021)
 Q-Chem 5.4.0 for Intel X86 EM64T Linux

User input:
--------------------------------------------------------------
$molecule
-2 1
O                  4.8703400000     -0.9340240000      0.0176660000
C                  3.6396690000     -0.2742880000      0.0583080000
C                  3.5807760000      1.1344440000      0.1260840000
C                  2.3463370000      1.7584720000      0.1651200000
C                  1.1348080000      1.0270230000      0.1393960000
C                 -0.1427410000      1.7436110000      0.1832750000
O                 -0.1608760000      3.0107770000      0.2437140000
C                 -1.3351180000      0.9028910000      0.1524960000
C                 -2.6590420000      1.4472720000      0.1892650000
O                 -2.8410350000      2.8262160000      0.2573370000
C                 -3.7804770000      0.6438140000      0.1591730000
C                 -3.6689800000     -0.7748050000      0.0908550000
C                 -2.4310890000     -1.3629200000      0.0524720000
O                 -2.3333680000     -2.7255710000     -0.0141960000
C                 -1.2264400000     -0.5581810000      0.0814720000
C                  0.0298410000     -1.2000580000      0.0413490000
O                  0.1529670000     -2.5577910000     -0.0241070000
C                  1.1990880000     -0.4032330000      0.0705740000
C                  2.4860580000     -1.0276680000      0.0310770000
O                  2.6014650000     -2.3903770000     -0.0343510000
H                  4.6256260000     -1.8708390000     -0.0243790000
H                  4.5077450000      1.7012820000      0.1458720000
H                  2.2632640000      2.8383290000      0.2172220000
H                 -3.7961330000      2.9519370000      0.2854860000
H                 -4.7680680000      1.1063560000      0.1879160000
H                 -4.5542140000     -1.4037950000      0.0673780000
H                 -1.3339770000     -2.9107060000     -0.0301790000
H                  1.5935760000     -2.6989680000     -0.0412380000
$end

$rem
BASIS  =  6-311++G(d,p)
GUI  =  2
JOB_TYPE  =  SP
METHOD  =  B3LYP
SCF_CONVERGENCE  = 8
SOLVENT_METHOD = sm12
$end

$smx
solvent dimethylformamide
charges CM5
$end

--------------------------------------------------------------

             Standard Nuclear Orientation (Angstroms)
    I     Atom           X                Y                Z
 ----------------------------------------------------------------
    1      O       4.8703400000    -0.9340240000     0.0176660000
    2      C       3.6396690000    -0.2742880000     0.0583080000
    3      C       3.5807760000     1.1344440000     0.1260840000
    4      C       2.3463370000     1.7584720000     0.1651200000
    5      C       1.1348080000     1.0270230000     0.1393960000
    6      C      -0.1427410000     1.7436110000     0.1832750000
    7      O      -0.1608760000     3.0107770000     0.2437140000
    8      C      -1.3351180000     0.9028910000     0.1524960000
    9      C      -2.6590420000     1.4472720000     0.1892650000
   10      O      -2.8410350000     2.8262160000     0.2573370000
   11      C      -3.7804770000     0.6438140000     0.1591730000
   12      C      -3.6689800000    -0.7748050000     0.0908550000
   13      C      -2.4310890000    -1.3629200000     0.0524720000
   14      O      -2.3333680000    -2.7255710000    -0.0141960000
   15      C      -1.2264400000    -0.5581810000     0.0814720000
   16      C       0.0298410000    -1.2000580000     0.0413490000
   17      O       0.1529670000    -2.5577910000    -0.0241070000
   18      C       1.1990880000    -0.4032330000     0.0705740000
   19      C       2.4860580000    -1.0276680000     0.0310770000
   20      O       2.6014650000    -2.3903770000    -0.0343510000
   21      H       4.6256260000    -1.8708390000    -0.0243790000
   22      H       4.5077450000     1.7012820000     0.1458720000
   23      H       2.2632640000     2.8383290000     0.2172220000
   24      H      -3.7961330000     2.9519370000     0.2854860000
   25      H      -4.7680680000     1.1063560000     0.1879160000
   26      H      -4.5542140000    -1.4037950000     0.0673780000
   27      H      -1.3339770000    -2.9107060000    -0.0301790000
   28      H       1.5935760000    -2.6989680000    -0.0412380000
 ----------------------------------------------------------------

   18    -989.9530564494      3.12e-09  Convergence criterion met
 Total energy in the final basis set =     -990.2256058667

                    Orbital Energies (a.u.)
 --------------------------------------------------------------

 Alpha MOs
 -- Occupied --
-19.1439 -19.1341 -19.1142 -19.1059 -19.0607 -19.0280 -10.2184 -10.2134
-10.2123 -10.2116 -10.1979 -10.1907 -10.1680 -10.1613 -10.1603 -10.1600
-10.1573 -10.1560 -10.1537 -10.1507  -1.0542  -1.0405  -1.0247  -1.0168
 -0.9530  -0.9501  -0.8392  -0.8242  -0.7706  -0.7288  -0.7219  -0.7155
 -0.6571  -0.6302  -0.6245  -0.5822  -0.5646  -0.5375  -0.5334  -0.5113
 -0.5028  -0.4724  -0.4657  -0.4582  -0.4448  -0.4327  -0.4227  -0.4125
 -0.4042  -0.4023  -0.3971  -0.3839  -0.3753  -0.3733  -0.3663  -0.3617
 -0.3574  -0.3469  -0.3463  -0.3407  -0.3222  -0.3220  -0.3010  -0.2848
 -0.2443  -0.2398  -0.2288  -0.2030  -0.1982  -0.1967  -0.1198

          Ground-State Mulliken Net Atomic Charges

     Atom                 Charge (a.u.)
  ----------------------------------------
      1 O                    -0.142410
      2 C                     1.886369
      3 C                     1.288088
      4 C                    -0.297528
      5 C                    -1.526176
      6 C                    -2.329307
      7 O                    -0.317265
      8 C                    -1.476216
      9 C                     0.319308
     10 O                    -0.081227
     11 C                     1.974090
     12 C                     1.212079
     13 C                    -0.142256
     14 O                    -0.332132
     15 C                    -1.392672
     16 C                    -1.863204
     17 O                    -0.521134
     18 C                    -1.282455
     19 C                     0.738517
     20 O                    -0.427968
     21 H                     0.369661
     22 H                     0.327769
     23 H                     0.091606
     24 H                     0.373076
     25 H                     0.332078
     26 H                     0.250830
     27 H                     0.431759
     28 H                     0.536722
  ----------------------------------------
  Sum of atomic charges =    -2.000000

                    Cartesian Multipole Moments
 -----------------------------------------------------------------
    Charge (ESU x 10^10)
                -9.6064
    Dipole Moment (Debye)
         X      -1.7054      Y      -0.9836      Z      -0.9626
       Tot       2.1915
    Quadrupole Moments (Debye-Ang)
        XX    -174.8086     XY      -6.3889     YY    -176.9041
        XZ      -0.1896     YZ      -2.3343     ZZ    -127.6465

 Total job time:  802.81s(wall), 6280.47s(cpu)
        *  Thank you very much for using Q-Chem.  Have a nice day.  *
