 Gaussian 16, Revision A.03,
 Gaussian 16:  ES64L-G16RevA.03 25-Dec-2016

 --------------------------------------
 #P UB3LYP/6-311++G(d,p) nosym opt freq
 --------------------------------------

 -------
 Reduced
 -------
 Symbolic Z-matrix:
 Charge = -2 Multiplicity = 1

 SCF Done:  E(UB3LYP) =  -1168.21815753     A.U. after   40 cycles
 Optimization completed.
    -- Stationary point found.
 Normal termination of Gaussian 16 at Sun Jan  7 20:23:59 2024.

 ----------------------------------------------------------------------
 #P Geom=AllCheck Guess=TCheck SCRF=Check GenChk UB3LYP/6-311++G(d,p) F
 req
 ----------------------------------------------------------------------

 Structure from the checkpoint file:  "230-an.chk"
 -------
 Reduced
 -------
 Charge = -2 Multiplicity = 1

                          Input orientation:
 ---------------------------------------------------------------------
 Center     Atomic      Atomic             Coordinates (Angstroms)
 Number     Number       Type             X           Y           Z
 ---------------------------------------------------------------------
      1          6           0        5.766103   -5.217998    1.116242
      2          6           0        6.532858   -5.266644   -0.035856
      3          6           0        6.286956   -4.336345   -1.077704
      4          6           0        4.737684   -4.268389    1.292159
      5          6           0        4.488747   -3.321939    0.235018
      6          6           0        5.288172   -3.392861   -0.933454
      7          6           0        3.976936   -4.271179    2.545470
      8          6           0        2.971824   -3.258734    2.584216
      9          6           0        2.677053   -2.350440    1.549828
     10          6           0        3.442953   -2.332863    0.334439
     11          8           0        4.224790   -5.094134    3.486911
     12          8           0        3.189105   -1.465170   -0.592197
     13          1           0        5.928213   -5.912791    1.934426
     14          1           0        7.318044   -6.012737   -0.142028
     15          1           0        5.077328   -2.668057   -1.713466
     16         17           0        2.074986   -3.124260    4.133818
     17          1           0        6.884408   -4.365660   -1.987391
     18          7           0        1.684195   -1.338241    1.629258
     19          6           0        0.276739   -1.759780    1.655920
     20          6           0       -0.654790   -0.547839    1.730813
     21          6           0       -2.140308   -0.923185    1.756694
     22          1           0        1.845128   -0.801278    0.771445
     23          1           0        0.115582   -2.398720    2.525885
     24          1           0        0.018002   -2.358420    0.762210
     25          1           0       -0.459195    0.108053    0.872099
     26          1           0       -0.398111    0.031774    2.624669
     27          1           0       -2.426102   -1.488011    0.862323
     28          1           0       -2.787638   -0.038292    1.802963
     29          1           0       -2.377001   -1.546837    2.626340
 ---------------------------------------------------------------------

 SCF Done:  E(UB3LYP) =  -1168.21815753     A.U. after    3 cycles

 Alpha  occ. eigenvalues -- -101.29856 -18.80044 -18.79586 -14.06867  -9.97777
 Alpha  occ. eigenvalues --   -9.97526  -9.97016  -9.96154  -9.95845  -9.95332
 Alpha  occ. eigenvalues --   -9.94732  -9.94391  -9.94179  -9.93449  -9.93443
 Alpha  occ. eigenvalues --   -9.92285  -9.92231  -9.21297  -6.97689  -6.96847
 Alpha  occ. eigenvalues --   -6.96768  -0.72311  -0.71630  -0.67348  -0.61318
 Alpha  occ. eigenvalues --   -0.60257  -0.57860  -0.53755  -0.50995  -0.48893
 Alpha  occ. eigenvalues --   -0.45568  -0.41777  -0.38886  -0.36914  -0.35309
 Alpha  occ. eigenvalues --   -0.31537  -0.28558  -0.26672  -0.26477  -0.24114
 Alpha  occ. eigenvalues --   -0.22877  -0.21858  -0.20934  -0.19211  -0.18674
 Alpha  occ. eigenvalues --   -0.18155  -0.16967  -0.16663  -0.15464  -0.14580
 Alpha  occ. eigenvalues --   -0.13938  -0.13589  -0.13194  -0.11845  -0.11483
 Alpha  occ. eigenvalues --   -0.09678  -0.09085  -0.07593  -0.05910  -0.03488
 Alpha  occ. eigenvalues --   -0.01335  -0.00296   0.01820   0.02796   0.02963
 Alpha  occ. eigenvalues --    0.11645
 Alpha virt. eigenvalues --    0.13035   0.15427   0.16505   0.17221   0.17414
 Alpha virt. eigenvalues --    0.18002   0.19792   0.20484   0.20786   0.21111
 Alpha virt. eigenvalues --    0.21387   0.22041   0.22535   0.23119   0.23906

  Beta  occ. eigenvalues -- -101.29856 -18.80044 -18.79586 -14.06867  -9.97777
  Beta  occ. eigenvalues --   -9.97526  -9.97016  -9.96154  -9.95845  -9.95332
  Beta  occ. eigenvalues --   -9.94732  -9.94391  -9.94179  -9.93449  -9.93443
  Beta  occ. eigenvalues --   -9.92285  -9.92231  -9.21297  -6.97689  -6.96847
  Beta  occ. eigenvalues --   -6.96768  -0.72311  -0.71630  -0.67348  -0.61318
  Beta  occ. eigenvalues --   -0.60257  -0.57860  -0.53755  -0.50995  -0.48893
  Beta  occ. eigenvalues --   -0.45568  -0.41777  -0.38886  -0.36914  -0.35309
  Beta  occ. eigenvalues --   -0.31537  -0.28558  -0.26672  -0.26477  -0.24114
  Beta  occ. eigenvalues --   -0.22877  -0.21858  -0.20934  -0.19211  -0.18674
  Beta  occ. eigenvalues --   -0.18155  -0.16967  -0.16663  -0.15464  -0.14580
  Beta  occ. eigenvalues --   -0.13938  -0.13589  -0.13194  -0.11845  -0.11483
  Beta  occ. eigenvalues --   -0.09678  -0.09085  -0.07593  -0.05910  -0.03488
  Beta  occ. eigenvalues --   -0.01335  -0.00296   0.01820   0.02796   0.02963
  Beta  occ. eigenvalues --    0.11645
  Beta virt. eigenvalues --    0.13035   0.15427   0.16505   0.17221   0.17414
  Beta virt. eigenvalues --    0.18002   0.19792   0.20484   0.20786   0.21111
  Beta virt. eigenvalues --    0.21387   0.22041   0.22535   0.23119   0.23906

 Mulliken charges and spin densities:
               1          2
     1  C    0.054275  -0.000000
     2  C   -0.383171   0.000000
     3  C   -0.313683   0.000000
     4  C    0.370806  -0.000000
     5  C    0.296649   0.000000
     6  C   -0.016837   0.000000
     7  C   -0.978459   0.000000
     8  C    1.163019  -0.000000
     9  C   -0.552252   0.000000
    10  C   -1.126623  -0.000000
    11  O   -0.445518   0.000000
    12  O   -0.513284   0.000000
    13  H    0.136560   0.000000
    14  H    0.077332  -0.000000
    15  H    0.137971  -0.000000
    16  Cl   0.234026   0.000000
    17  H    0.077668  -0.000000
    18  N    0.130065  -0.000000
    19  C    0.250464   0.000000
    20  C   -1.236340  -0.000000
    21  C    0.909676   0.000000
    22  H    0.211314   0.000000
    23  H    0.116004   0.000000
    24  H    0.129560   0.000000
    25  H    0.140308   0.000000
    26  H    0.083312  -0.000000
    27  H   -0.058592  -0.000000
    28  H   -0.859747  -0.000000
    29  H   -0.034501  -0.000000
 Sum of Mulliken charges =  -2.00000  -0.00000

 Dipole moment (field-independent basis, Debye):
    X=            -26.1329    Y=             27.4320    Z=            -15.5566  Tot=             40.9567
 Quadrupole moment (field-independent basis, Debye-Ang):
   XX=           -280.4811   YY=           -242.2819   ZZ=           -185.4521
   XY=            120.0559   XZ=            -32.2798   YZ=             56.6559

  Exact polarizability:1824.225-722.047 735.830-174.576  59.521 379.693
 Approx polarizability:7860.903********2081.817-729.696 266.550 563.711

                      1                      2                      3
                      A                      A                      A
 Frequencies --     35.8395                45.1235                62.8717
 Red. masses --      4.0876                 2.7825                 2.2829
 Frc consts  --      0.0031                 0.0033                 0.0053
 IR Inten    --      0.3037                 1.8480                 1.8552

                      4                      5                      6
                      A                      A                      A
 Frequencies --     77.7251               121.3713               151.5688
 Red. masses --      7.0090                 4.4611                 5.3292
 Frc consts  --      0.0249                 0.0387                 0.0721
 IR Inten    --      3.6149                 3.8631                 1.9773

                      7                      8                      9
                      A                      A                      A
 Frequencies --    163.6857               185.1241               204.9085
 Red. masses --      2.8220                 6.5160                 8.6770
 Frc consts  --      0.0445                 0.1316                 0.2147
 IR Inten    --     12.7134                 0.6791                 7.3031

                     10                     11                     12
                      A                      A                      A
 Frequencies --    246.8695               251.4486               271.0653
 Red. masses --      1.4981                 2.3471                 4.3522
 Frc consts  --      0.0538                 0.0874                 0.1884
 IR Inten    --     25.3664                16.2937                 5.4991

                     13                     14                     15
                      A                      A                      A
 Frequencies --    287.6104               303.2951               345.4205
 Red. masses --      5.3665                 9.7905                 7.2388
 Frc consts  --      0.2615                 0.5306                 0.5089
 IR Inten    --      6.7650                 1.8310                15.0819

                     16                     17                     18
                      A                      A                      A
 Frequencies --    368.4198               379.7530               423.0332
 Red. masses --      9.6259                 6.9435                 3.8466
 Frc consts  --      0.7698                 0.5900                 0.4056
 IR Inten    --     20.7255                 1.6115                13.1234

                     19                     20                     21
                      A                      A                      A
 Frequencies --    460.0938               469.8276               500.0761
 Red. masses --      3.8073                 9.3378                 7.6039
 Frc consts  --      0.4749                 1.2144                 1.1204
 IR Inten    --     55.9548               473.6771               209.9338

                     22                     23                     24
                      A                      A                      A
 Frequencies --    544.2762               602.4132               664.2555
 Red. masses --      5.1893                 7.5621                 6.6030
 Frc consts  --      0.9057                 1.6169                 1.7166
 IR Inten    --      8.9754                 8.7568                14.5853

                     25                     26                     27
                      A                      A                      A
 Frequencies --    676.8032               699.6752               707.3752
 Red. masses --      4.0022                 2.4636                 4.6249
 Frc consts  --      1.0801                 0.7106                 1.3635
 IR Inten    --     33.8849                37.4240                16.5219

                     28                     29                     30
                      A                      A                      A
 Frequencies --    752.4961               755.0850               770.7383
 Red. masses --      2.7894                 1.1026                 2.6943
 Frc consts  --      0.9306                 0.3704                 0.9430
 IR Inten    --     18.1507                 1.1659                 3.0670

                     31                     32                     33
                      A                      A                      A
 Frequencies --    791.2165               812.5132               868.2471
 Red. masses --      8.3393                 1.9312                 2.2795
 Frc consts  --      3.0759                 0.7512                 1.0124
 IR Inten    --    123.3659                 0.5049                57.0718

                     34                     35                     36
                      A                      A                      A
 Frequencies --    881.3970               887.9536               928.2023
 Red. masses --      1.9369                 1.4055                 2.5155
 Frc consts  --      0.8865                 0.6529                 1.2769
 IR Inten    --      6.5984                 4.9115                36.7022

                     37                     38                     39
                      A                      A                      A
 Frequencies --    950.9334               956.7486              1004.6347
 Red. masses --      1.2419                 1.3476                 2.5558
 Frc consts  --      0.6617                 0.7268                 1.5198
 IR Inten    --      0.5824                 3.1077               377.3465

                     40                     41                     42
                      A                      A                      A
 Frequencies --   1020.5876              1038.5685              1078.4037
 Red. masses --      1.9951                 2.8133                 3.1285
 Frc consts  --      1.2244                 1.7879                 2.1436
 IR Inten    --    154.8414                11.4922                15.8146

                     43                     44                     45
                      A                      A                      A
 Frequencies --   1093.4864              1123.6738              1129.3891
 Red. masses --      2.2552                 1.7038                 1.7964
 Frc consts  --      1.5887                 1.2675                 1.3500
 IR Inten    --     44.2093                10.1632               110.9148

                     46                     47                     48
                      A                      A                      A
 Frequencies --   1145.0455              1181.3777              1196.9187
 Red. masses --      2.9677                 2.5454                 2.0909
 Frc consts  --      2.2925                 2.0931                 1.7649
 IR Inten    --    378.6946                78.7632                41.1638

                     49                     50                     51
                      A                      A                      A
 Frequencies --   1212.1909              1246.0105              1264.8547
 Red. masses --      2.7771                 2.0011                 1.3659
 Frc consts  --      2.4042                 1.8305                 1.2875
 IR Inten    --     66.9535                84.3401                98.0130

                     52                     53                     54
                      A                      A                      A
 Frequencies --   1314.1842              1317.6234              1338.1977
 Red. masses --      1.1644                 1.3160                 6.6900
 Frc consts  --      1.1848                 1.3462                 7.0585
 IR Inten    --     11.6677                12.0319               734.3001

                     55                     56                     57
                      A                      A                      A
 Frequencies --   1367.0353              1391.4822              1395.8367
 Red. masses --      2.4847                 1.5143                 1.5602
 Frc consts  --      2.7358                 1.7275                 1.7910
 IR Inten    --     27.4490                28.1508               991.4109

                     58                     59                     60
                      A                      A                      A
 Frequencies --   1414.0099              1442.4964              1448.4533
 Red. masses --      3.4092                 4.7938                 3.2552
 Frc consts  --      4.0161                 5.8771                 4.0238
 IR Inten    --   1028.9762              1047.7271               202.2217

                     61                     62                     63
                      A                      A                      A
 Frequencies --   1483.1860              1487.6714              1488.2687
 Red. masses --      1.0437                 1.5057                 1.8262
 Frc consts  --      1.3528                 1.9634                 2.3832
 IR Inten    --    147.8738                61.8897               164.2566

                     64                     65                     66
                      A                      A                      A
 Frequencies --   1500.2070              1508.8300              1512.1070
 Red. masses --      1.1280                 3.6672                 1.1640
 Frc consts  --      1.4958                 4.9188                 1.5681
 IR Inten    --    192.9712               586.6842               116.1313

                     67                     68                     69
                      A                      A                      A
 Frequencies --   1558.5225              1570.3836              1592.2255
 Red. masses --      1.4237                 4.9041                 5.6558
 Frc consts  --      2.0375                 7.1257                 8.4481
 IR Inten    --    168.6476              2587.7398               771.5964

                     70                     71                     72
                      A                      A                      A
 Frequencies --   2894.3495              2984.9369              2994.9824
 Red. masses --      1.0741                 1.0399                 1.0636
 Frc consts  --      5.3014                 5.4591                 5.6208
 IR Inten    --    108.4929                23.6416                23.8128

                     73                     74                     75
                      A                      A                      A
 Frequencies --   3030.6464              3039.7820              3057.4198
 Red. masses --      1.0951                 1.0957                 1.1006
 Frc consts  --      5.9262                 5.9653                 6.0618
 IR Inten    --     15.3186                47.3075                31.8835

                     76                     77                     78
                      A                      A                      A
 Frequencies --   3081.1795              3095.2510              3118.9763
 Red. masses --      1.0876                 1.0828                 1.0907
 Frc consts  --      6.0835                 6.1122                 6.2513
 IR Inten    --     22.4012                33.4737               297.4514

                     79                     80                     81
                      A                      A                      A
 Frequencies --   3160.1525              3162.7284              3372.9712
 Red. masses --      1.0903                 1.0915                 1.0717
 Frc consts  --      6.4152                 6.4327                 7.1838
 IR Inten    --     35.8740               190.0161                70.6037

 - Thermochemistry -
 -------------------
 Temperature   298.150 Kelvin.  Pressure   1.00000 Atm.
 Atom     1 has atomic number  6 and mass  12.00000

 Molecular mass:   249.05566 amu.
 Principal axes and moments of inertia in atomic units:
                           1         2         3
     Eigenvalues --  2472.443556750.266488870.92147
           X            0.84793   0.04256   0.52840
           Y           -0.45676  -0.44725   0.76899
           Z           -0.26905   0.89340   0.35980
 This molecule is an asymmetric top.
 Rotational symmetry number  1.
 Warning -- assumption of classical behavior for rotation
           may cause significant error
 Rotational temperatures (Kelvin)      0.03503     0.01283     0.00976
 Rotational constants (GHZ):           0.72994     0.26736     0.20344
 Zero-point vibrational energy     576987.0 (Joules/Mol)
                                  137.90321 (Kcal/Mol)
 Warning -- explicit consideration of  23 degrees of freedom as
           vibrations may cause significant error
 Vibrational temperatures:     51.57    64.92    90.46   111.83   174.63
          (Kelvin)            218.07   235.51   266.35   294.82   355.19
                              361.78   390.00   413.81   436.37   496.98
                              530.07   546.38   608.65   661.97   675.98
                              719.50   783.09   866.74   955.72   973.77
                             1006.68  1017.76  1082.67  1086.40  1108.92
                             1138.38  1169.03  1249.21  1268.13  1277.57
                             1335.48  1368.18  1376.55  1445.45  1468.40
                             1494.27  1551.58  1573.28  1616.72  1624.94
                             1647.47  1699.74  1722.10  1744.07  1792.73
                             1819.84  1890.82  1895.77  1925.37  1966.86
                             2002.03  2008.30  2034.44  2075.43  2084.00
                             2133.97  2140.43  2141.29  2158.46  2170.87
                             2175.58  2242.37  2259.43  2290.86  4164.32
                             4294.66  4309.11  4360.42  4373.57  4398.95
                             4433.13  4453.38  4487.51  4546.75  4550.46
                             4852.95

 Zero-point correction=                           0.219763 (Hartree/Particle)
 Thermal correction to Energy=                    0.235299
 Thermal correction to Enthalpy=                  0.236243
 Thermal correction to Gibbs Free Energy=         0.176008
 Sum of electronic and zero-point Energies=          -1167.998395
 Sum of electronic and thermal Energies=             -1167.982859
 Sum of electronic and thermal Enthalpies=           -1167.981915
 Sum of electronic and thermal Free Energies=        -1168.042150

                     E (Thermal)             CV                S
                      KCal/Mol        Cal/Mol-Kelvin    Cal/Mol-Kelvin
 Total                  147.652             58.846            126.775
 Electronic               0.000              0.000              0.000
 Translational            0.889              2.981             42.438
 Rotational               0.889              2.981             33.359
 Vibrational            145.875             52.885             50.978
 Vibration     1          0.594              1.982              5.477
 Vibration     2          0.595              1.979              5.020
 Vibration     3          0.597              1.972              4.365
 Vibration     4          0.599              1.964              3.948
 Vibration     5          0.609              1.931              3.078
 Vibration     6          0.619              1.901              2.652
 Vibration     7          0.623              1.887              2.507
 Vibration     8          0.631              1.860              2.276
 Vibration     9          0.640              1.833              2.089
 Vibration    10          0.661              1.768              1.753
 Vibration    11          0.663              1.760              1.720
 Vibration    12          0.675              1.727              1.589
 Vibration    13          0.685              1.697              1.488
 Vibration    14          0.695              1.667              1.399
 Vibration    15          0.724              1.585              1.187
 Vibration    16          0.741              1.537              1.086
 Vibration    17          0.750              1.513              1.040
 Vibration    18          0.785              1.420              0.882
 Vibration    19          0.818              1.339              0.766
 Vibration    20          0.827              1.317              0.738
 Vibration    21          0.855              1.250              0.658
 Vibration    22          0.899              1.152              0.556
 Vibration    23          0.961              1.027              0.446

 Optimization completed.
    -- Stationary point found.
 Normal termination of Gaussian 16 at Sun Jan  7 21:13:31 2024.
