 Q-Chem 5.4, Q-Chem, Inc., Pleasanton, CA (2021)
 Q-Chem 5.4.0 for Intel X86 EM64T Linux

User input:
--------------------------------------------------------------
$molecule
-2 1
C                  5.7661030000     -5.2179980000      1.1162420000
C                  6.5328580000     -5.2666440000     -0.0358560000
C                  6.2869560000     -4.3363450000     -1.0777040000
C                  4.7376840000     -4.2683890000      1.2921590000
C                  4.4887470000     -3.3219390000      0.2350180000
C                  5.2881720000     -3.3928610000     -0.9334540000
C                  3.9769360000     -4.2711790000      2.5454700000
C                  2.9718240000     -3.2587340000      2.5842160000
C                  2.6770530000     -2.3504400000      1.5498280000
C                  3.4429530000     -2.3328630000      0.3344390000
O                  4.2247900000     -5.0941340000      3.4869110000
O                  3.1891050000     -1.4651700000     -0.5921970000
H                  5.9282130000     -5.9127910000      1.9344260000
H                  7.3180440000     -6.0127370000     -0.1420280000
H                  5.0773280000     -2.6680570000     -1.7134660000
Cl                 2.0749860000     -3.1242600000      4.1338180000
H                  6.8844080000     -4.3656600000     -1.9873910000
N                  1.6841950000     -1.3382410000      1.6292580000
C                  0.2767390000     -1.7597800000      1.6559200000
C                 -0.6547900000     -0.5478390000      1.7308130000
C                 -2.1403080000     -0.9231850000      1.7566940000
H                  1.8451280000     -0.8012780000      0.7714450000
H                  0.1155820000     -2.3987200000      2.5258850000
H                  0.0180020000     -2.3584200000      0.7622100000
H                 -0.4591950000      0.1080530000      0.8720990000
H                 -0.3981110000      0.0317740000      2.6246690000
H                 -2.4261020000     -1.4880110000      0.8623230000
H                 -2.7876380000     -0.0382920000      1.8029630000
H                 -2.3770010000     -1.5468370000      2.6263400000
$end
$rem
MAX_SCF_CYCLES=200
BASIS  =  6-311++G(d,p)
GUI  =  2
JOB_TYPE  =  SP
METHOD  =  B3LYP
SOLVENT_METHOD = COSMO
$end
$solvent
dielectric 37.219
opticaldielectric 1.43
$end

--------------------------------------------------------------

             Standard Nuclear Orientation (Angstroms)
    I     Atom           X                Y                Z
 ----------------------------------------------------------------
    1      C       3.4854895926    -0.7312548032    -0.3875361080
    2      C       4.4518078310     0.2591782410    -0.4412102358
    3      C       4.0785721102     1.6107189488    -0.2281278807
    4      C       2.1293882803    -0.4415365192    -0.1279167136
    5      C       1.7500196040     0.9309243851     0.0905204626
    6      C       2.7585207417     1.9253060573     0.0307909003
    7      C       1.1662392898    -1.5456171445    -0.0742160499
    8      C      -0.1642063569    -1.1058110280     0.1964890001
    9      C      -0.5708819566     0.2307678293     0.3697471376
   10      C       0.3803137399     1.3071689574     0.3438716559
   11      O       1.5172557340    -2.7598653695    -0.2397044117
   12      O      -0.0000538090     2.5279870190     0.5461289530
   13      H       3.7357730801    -1.7760016435    -0.5434342750
   14      H       5.4897403841     0.0034524166    -0.6455252640
   15      H       2.4433207239     2.9504084620     0.1982088195
   16      Cl     -1.3809886297    -2.4114863919     0.3922458848
   17      H       4.8306062741     2.3969894786    -0.2676496444
   18      N      -1.9010338747     0.6335953626     0.6613784151
   19      C      -2.9139393696     0.4649663905    -0.3897757652
   20      C      -4.2822484992     0.9579735767     0.0864912471
   21      C      -5.3826565613     0.8126314042    -0.9700578166
   22      H      -1.7936747594     1.6351088048     0.8498371173
   23      H      -2.9778062410    -0.5923161411    -0.6527009914
   24      H      -2.6345824781     1.0112039471    -1.3104366734
   25      H      -4.1996428415     2.0116189623     0.3845670096
   26      H      -4.5546736772     0.4032929355     0.9914375417
   27      H      -5.1416916941     1.3751238398    -1.8789826204
   28      H      -6.3516285830     1.1791991079    -0.6082099059
   29      H      -5.5178224370    -0.2354500157    -1.2607553946
 ----------------------------------------------------------------

   19   -1168.2180986342      3.93e-06  Convergence criterion met
 Total energy in the final basis set =    -1168.2180986342
    6   -1168.4920670743      3.58e-06  Convergence criterion met
 Total energy in the final basis set =    -1168.4920670743

                    Orbital Energies (a.u.)
 --------------------------------------------------------------

 Alpha MOs
 -- Occupied --
******** -19.0304 -19.0283 -14.2848 -10.1882 -10.1830 -10.1756 -10.1750
-10.1672 -10.1547 -10.1525 -10.1505 -10.1502 -10.1495 -10.1485 -10.1441
-10.1436  -9.4401  -7.2040  -7.1956  -7.1948  -0.9556  -0.9492  -0.8910
 -0.8328  -0.8261  -0.7700  -0.7527  -0.7270  -0.6975  -0.6604  -0.6343
 -0.5860  -0.5815  -0.5683  -0.5347  -0.4977  -0.4774  -0.4598  -0.4476
 -0.4393  -0.4271  -0.4100  -0.4037  -0.3938  -0.3894  -0.3877  -0.3783
 -0.3746  -0.3599  -0.3506  -0.3449  -0.3380  -0.3292  -0.3250  -0.3210
 -0.3123  -0.3049  -0.2860  -0.2562  -0.2342  -0.2312  -0.2160  -0.2090
 -0.1957  -0.1181

          Ground-State Mulliken Net Atomic Charges

     Atom                 Charge (a.u.)
  ----------------------------------------
      1 C                     0.071827
      2 C                    -0.484996
      3 C                    -0.444166
      4 C                     0.165492
      5 C                     0.119978
      6 C                    -0.019908
      7 C                    -0.658789
      8 C                     0.903780
      9 C                    -0.515563
     10 C                    -0.789281
     11 O                    -0.660807
     12 O                    -0.714973
     13 H                     0.163091
     14 H                     0.177716
     15 H                     0.164800
     16 Cl                    0.251445
     17 H                     0.179014
     18 N                     0.019387
     19 C                    -0.486190
     20 C                    -0.026372
     21 C                    -0.640614
     22 H                     0.269843
     23 H                     0.100839
     24 H                     0.149918
     25 H                     0.131807
     26 H                     0.132771
     27 H                     0.140164
     28 H                     0.152604
     29 H                     0.147184
  ----------------------------------------
  Sum of atomic charges =    -2.000001

                    Cartesian Multipole Moments
 -----------------------------------------------------------------
    Charge (ESU x 10^10)
                -9.6064
    Dipole Moment (Debye)
         X      -6.9874      Y       3.5219      Z      -2.5819
       Tot       8.2398
    Quadrupole Moments (Debye-Ang)
        XX    -136.2993     XY       7.5086     YY    -171.7507
        XZ       4.6769     YZ      -5.5373     ZZ    -122.6968

 Total job time:  130.77s(wall), 769.77s(cpu)
        *  Thank you very much for using Q-Chem.  Have a nice day.  *
