 Gaussian 16, Revision A.03,
 Gaussian 16:  ES64L-G16RevA.03 25-Dec-2016

 ----------------------------------------------------------------------
 #P UB3LYP/6-311++G(d,p) nosym opt freq SCRF=(PCM,Solvent=n,n-DiMethylF
 ormamide)
 ----------------------------------------------------------------------

 -------
 Radical
 -------
 Symbolic Z-matrix:
 Charge = -1 Multiplicity = 2

 SCF Done:  E(UB3LYP) =  -771.358405533     A.U. after   18 cycles
 SCF Done:  E(UB3LYP) =  -771.358725039     A.U. after   14 cycles
 SCF Done:  E(UB3LYP) =  -771.358746628     A.U. after   13 cycles
 SCF Done:  E(UB3LYP) =  -771.358779754     A.U. after   12 cycles
 SCF Done:  E(UB3LYP) =  -771.358783385     A.U. after   11 cycles
 SCF Done:  E(UB3LYP) =  -771.358785122     A.U. after   11 cycles
 SCF Done:  E(UB3LYP) =  -771.358786030     A.U. after   10 cycles
 SCF Done:  E(UB3LYP) =  -771.358786998     A.U. after   10 cycles
 SCF Done:  E(UB3LYP) =  -771.358787172     A.U. after   10 cycles
 SCF Done:  E(UB3LYP) =  -771.358787185     A.U. after    8 cycles
 Optimization completed.
    -- Stationary point found.
 Normal termination of Gaussian 16 at Sun Feb 11 01:52:17 2024.

 ----------------------------------------------------------------------
 #P Geom=AllCheck Guess=TCheck SCRF=Check GenChk UB3LYP/6-311++G(d,p) F
 req
 ----------------------------------------------------------------------

 Structure from the checkpoint file:  "248-rad.chk"
 -------
 Radical
 -------
 Charge = -1 Multiplicity = 2

                          Input orientation:
 ---------------------------------------------------------------------
 Center     Atomic      Atomic             Coordinates (Angstroms)
 Number     Number       Type             X           Y           Z
 ---------------------------------------------------------------------
      1          6           0        5.858708   -5.575896    0.884371
      2          6           0        6.380913   -5.570063   -0.397402
      3          6           0        5.966866   -4.589755   -1.319104
      4          6           0        4.912105   -4.612224    1.290181
      5          6           0        4.497055   -3.623564    0.362232
      6          6           0        5.039988   -3.634775   -0.939112
      7          6           0        4.369902   -4.637894    2.654927
      8          6           0        3.395599   -3.625828    3.001976
      9          6           0        2.997429   -2.647054    2.094208
     10          6           0        3.517577   -2.598868    0.745774
     11          8           0        4.754301   -5.521198    3.482860
     12          8           0        3.154592   -1.709756   -0.084269
     13          1           0        7.107889   -6.319230   -0.692663
     14          6           0        1.982703   -1.589547    2.468312
     15          1           0        6.374310   -4.584075   -2.324531
     16          6           0        2.839910   -3.664201    4.407153
     17          6           0        0.532353   -1.971363    2.106162
     18          6           0       -0.485165   -0.885474    2.472022
     19          6           0       -1.930211   -1.252214    2.114650
     20          6           0       -2.941289   -0.162034    2.483071
     21          1           0        6.167979   -6.323604    1.604741
     22          1           0        4.709867   -2.873834   -1.636072
     23          1           0        2.234676   -0.666035    1.939787
     24          1           0        2.036114   -1.374345    3.539281
     25          1           0        3.133236   -4.592858    4.895016
     26          1           0        1.749318   -3.591110    4.419141
     27          1           0        3.222040   -2.834764    5.014682
     28          1           0        0.263772   -2.906299    2.613007
     29          1           0        0.479623   -2.174796    1.030981
     30          1           0       -0.214564    0.049476    1.963766
     31          1           0       -0.422508   -0.676783    3.548402
     32          1           0       -2.200579   -2.186467    2.621952
     33          1           0       -1.993289   -1.459644    1.039417
     34          1           0       -2.925697    0.043389    3.558393
     35          1           0       -3.960673   -0.454846    2.215342
     36          1           0       -2.717159    0.775476    1.963908
 ---------------------------------------------------------------------

 SCF Done:  E(UB3LYP) =  -771.358787185     A.U. after    1 cycles

 Alpha  occ. eigenvalues --  -19.06966 -19.06921 -10.21487 -10.21427 -10.17041
 Alpha  occ. eigenvalues --  -10.16992 -10.16895 -10.16841 -10.16723 -10.16718
 Alpha  occ. eigenvalues --  -10.16579 -10.16236 -10.15970 -10.15676 -10.15654
 Alpha  occ. eigenvalues --  -10.15475 -10.15372 -10.15081  -0.99175  -0.98896
 Alpha  occ. eigenvalues --   -0.85432  -0.81778  -0.79338  -0.75885  -0.74632
 Alpha  occ. eigenvalues --   -0.74142  -0.70255  -0.66821  -0.65071  -0.61323
 Alpha  occ. eigenvalues --   -0.59303  -0.57656  -0.57110  -0.54731  -0.51134
 Alpha  occ. eigenvalues --   -0.48707  -0.47060  -0.46104  -0.44836  -0.43243
 Alpha  occ. eigenvalues --   -0.42380  -0.42316  -0.41909  -0.40864  -0.40635
 Alpha  occ. eigenvalues --   -0.40105  -0.39364  -0.38472  -0.37903  -0.37088
 Alpha  occ. eigenvalues --   -0.36795  -0.36164  -0.35240  -0.34602  -0.34040
 Alpha  occ. eigenvalues --   -0.33458  -0.32658  -0.32398  -0.31715  -0.31467
 Alpha  occ. eigenvalues --   -0.26372  -0.25353  -0.24046  -0.23718  -0.22988
 Alpha  occ. eigenvalues --   -0.14749
 Alpha virt. eigenvalues --   -0.03059  -0.01187  -0.00412   0.00156   0.00733
 Alpha virt. eigenvalues --    0.01316   0.01474   0.02081   0.02856   0.03381
 Alpha virt. eigenvalues --    0.03438   0.04194   0.04569   0.05023   0.05177

  Beta  occ. eigenvalues --  -19.06341 -19.06309 -10.21310 -10.21256 -10.17007
  Beta  occ. eigenvalues --  -10.16958 -10.16842 -10.16789 -10.16717 -10.16711
  Beta  occ. eigenvalues --  -10.16446 -10.16103 -10.15969 -10.15669 -10.15645
  Beta  occ. eigenvalues --  -10.15485 -10.15372 -10.15092  -0.98094  -0.97787
  Beta  occ. eigenvalues --   -0.85225  -0.81464  -0.79215  -0.75720  -0.74454
  Beta  occ. eigenvalues --   -0.74001  -0.69983  -0.66676  -0.64425  -0.61217
  Beta  occ. eigenvalues --   -0.59174  -0.57485  -0.57013  -0.54468  -0.50939
  Beta  occ. eigenvalues --   -0.48480  -0.47013  -0.45859  -0.44747  -0.43045
  Beta  occ. eigenvalues --   -0.42264  -0.41889  -0.41758  -0.40648  -0.40070
  Beta  occ. eigenvalues --   -0.39871  -0.38662  -0.38348  -0.37727  -0.37022
  Beta  occ. eigenvalues --   -0.36077  -0.35479  -0.34534  -0.33776  -0.33362
  Beta  occ. eigenvalues --   -0.33286  -0.32582  -0.32294  -0.31669  -0.31260
  Beta  occ. eigenvalues --   -0.24694  -0.24205  -0.23472  -0.22689  -0.22397
  Beta virt. eigenvalues --   -0.08145  -0.02351  -0.00433  -0.00085   0.00169
  Beta virt. eigenvalues --    0.00741   0.01328   0.01484   0.02087   0.02877
  Beta virt. eigenvalues --    0.03401   0.03457   0.04231   0.04596   0.05106

 Mulliken charges and spin densities:
               1          2
     1  C    0.178724   0.033665
     2  C   -0.445612   0.024625
     3  C   -0.412094   0.027041
     4  C    0.251632   0.009919
     5  C   -0.133638   0.019378
     6  C    0.069434   0.033349
     7  C   -0.756122   0.101366
     8  C    0.942704   0.090641
     9  C    1.048383   0.083874
    10  C   -1.016464   0.101113
    11  O   -0.488147   0.229282
    12  O   -0.471255   0.227850
    13  H    0.175925  -0.002168
    14  C   -0.419697   0.012376
    15  H    0.175832  -0.002173
    16  C   -0.529535  -0.002323
    17  C   -0.557466   0.001731
    18  C   -0.187424   0.004667
    19  C   -0.176906  -0.000409
    20  C   -0.659546   0.000124
    21  H    0.166807  -0.002278
    22  H    0.166359  -0.002454
    23  H    0.204662   0.002697
    24  H    0.170187   0.000720
    25  H    0.177273  -0.001336
    26  H    0.156452   0.003837
    27  H    0.176498   0.006350
    28  H    0.120412  -0.000539
    29  H    0.169881  -0.000901
    30  H    0.110914   0.000197
    31  H    0.107118  -0.000282
    32  H    0.131225   0.000117
    33  H    0.128826  -0.000081
    34  H    0.140346  -0.000004
    35  H    0.143595   0.000040
    36  H    0.140717  -0.000013
 Sum of Mulliken charges =  -1.00000   1.00000

 Dipole moment (field-independent basis, Debye):
    X=            -19.6391    Y=             17.7457    Z=             -7.5375  Tot=             27.5212
 Quadrupole moment (field-independent basis, Debye-Ang):
   XX=           -197.3499   YY=           -197.9046   ZZ=           -138.7123
   XY=             78.8634   XZ=            -40.0266   YZ=             45.0839

  Exact polarizability: 285.844 -91.844 303.825 -43.842 -30.393 347.126
 Approx polarizability: 292.020 -89.899 340.727 -32.910 -50.417 384.621

                      1                      2                      3
                      A                      A                      A
 Frequencies --     27.1518                36.8978                55.4256
 Red. masses --      4.2543                 5.0776                 1.6416
 Frc consts  --      0.0018                 0.0041                 0.0030
 IR Inten    --      0.5501                 3.1335                 0.5140

                      4                      5                      6
                      A                      A                      A
 Frequencies --     80.4295               101.7204               111.1034
 Red. masses --      4.7553                 2.7542                 1.7024
 Frc consts  --      0.0181                 0.0168                 0.0124
 IR Inten    --     16.8647                 0.8158                 0.1714

                      7                      8                      9
                      A                      A                      A
 Frequencies --    119.9133               142.3152               149.4946
 Red. masses --      1.5591                 4.1696                 1.8282
 Frc consts  --      0.0132                 0.0498                 0.0241
 IR Inten    --      0.1494                 0.2083                 0.3115

                     10                     11                     12
                      A                      A                      A
 Frequencies --    161.7927               190.5414               241.9747
 Red. masses --      3.9671                 5.7845                 1.1239
 Frc consts  --      0.0612                 0.1237                 0.0388
 IR Inten    --      1.0426                 1.2785                 0.0546

                     13                     14                     15
                      A                      A                      A
 Frequencies --    257.6065               284.6565               338.8816
 Red. masses --      4.1951                 4.3182                 3.2862
 Frc consts  --      0.1640                 0.2062                 0.2224
 IR Inten    --      9.2551                 1.0694                 0.6851

                     16                     17                     18
                      A                      A                      A
 Frequencies --    345.2595               350.6269               388.4128
 Red. masses --      2.5952                 3.8480                 8.0991
 Frc consts  --      0.1823                 0.2787                 0.7199
 IR Inten    --      0.2556                 2.3756                27.7751

                     19                     20                     21
                      A                      A                      A
 Frequencies --    407.1865               427.4103               435.9097
 Red. masses --      3.9286                 6.1652                 4.1277
 Frc consts  --      0.3838                 0.6636                 0.4621
 IR Inten    --      0.2797                 5.4970                 2.0598

                     22                     23                     24
                      A                      A                      A
 Frequencies --    450.5656               482.9050               525.4441
 Red. masses --      3.8902                 5.3850                 6.8162
 Frc consts  --      0.4653                 0.7399                 1.1088
 IR Inten    --      2.5406                 2.9373                 1.5241

                     25                     26                     27
                      A                      A                      A
 Frequencies --    564.3795               634.8040               673.5600
 Red. masses --      4.7492                 5.1419                 5.2809
 Frc consts  --      0.8913                 1.2208                 1.4116
 IR Inten    --      8.0032                37.2520                 5.6358

                     28                     29                     30
                      A                      A                      A
 Frequencies --    674.7532               691.5469               719.8690
 Red. masses --      3.5318                 3.5759                 3.3050
 Frc consts  --      0.9474                 1.0076                 1.0091
 IR Inten    --      0.4862                39.9037                57.4700

                     31                     32                     33
                      A                      A                      A
 Frequencies --    728.7552               753.7684               786.6443
 Red. masses --      1.1041                 1.2488                 1.8436
 Frc consts  --      0.3455                 0.4180                 0.6721
 IR Inten    --      8.4025                 0.7545                41.7825

                     34                     35                     36
                      A                      A                      A
 Frequencies --    795.7635               817.2258               859.1239
 Red. masses --      4.4377                 1.9828                 1.7981
 Frc consts  --      1.6557                 0.7802                 0.7820
 IR Inten    --      2.5757                 2.6093                 7.6814

                     37                     38                     39
                      A                      A                      A
 Frequencies --    886.5745               890.4427               916.9768
 Red. masses --      1.4529                 2.1943                 2.5565
 Frc consts  --      0.6729                 1.0251                 1.2665
 IR Inten    --      0.0418                 5.0209                17.6651

                     40                     41                     42
                      A                      A                      A
 Frequencies --    975.3460               984.6369               989.0131
 Red. masses --      1.4965                 1.3753                 2.8499
 Frc consts  --      0.8388                 0.7856                 1.6424
 IR Inten    --      1.9080                 3.2059                12.8843

                     43                     44                     45
                      A                      A                      A
 Frequencies --    998.8289              1000.7884              1028.1528
 Red. masses --      1.2828                 3.5040                 2.8320
 Frc consts  --      0.7540                 2.0678                 1.7638
 IR Inten    --      0.0137                 1.6445                 0.2712

                     46                     47                     48
                      A                      A                      A
 Frequencies --   1038.8435              1042.0304              1060.3164
 Red. masses --      2.0625                 1.5384                 2.3400
 Frc consts  --      1.3114                 0.9842                 1.5500
 IR Inten    --     26.5686                 7.1799                 0.7149

                     49                     50                     51
                      A                      A                      A
 Frequencies --   1062.2929              1107.0148              1122.2769
 Red. masses --      1.7393                 2.1847                 2.2874
 Frc consts  --      1.1564                 1.5775                 1.6975
 IR Inten    --     15.4008                 5.7386                20.2099

                     52                     53                     54
                      A                      A                      A
 Frequencies --   1136.4246              1147.8062              1183.1089
 Red. masses --      1.8405                 1.4597                 2.4303
 Frc consts  --      1.4004                 1.1330                 2.0043
 IR Inten    --     73.4324                 2.2154                 2.5542

                     55                     56                     57
                      A                      A                      A
 Frequencies --   1205.7185              1224.4441              1247.7699
 Red. masses --      1.9677                 1.6457                 3.2733
 Frc consts  --      1.6854                 1.4537                 3.0027
 IR Inten    --      7.0562                20.8759                13.7227

                     58                     59                     60
                      A                      A                      A
 Frequencies --   1258.4632              1274.0451              1297.2113
 Red. masses --      1.3089                 2.0499                 1.3208
 Frc consts  --      1.2214                 1.9605                 1.3095
 IR Inten    --      2.8615               110.8559                 0.4797

                     61                     62                     63
                      A                      A                      A
 Frequencies --   1322.9266              1327.3790              1329.8360
 Red. masses --      1.0879                 1.1024                 1.3743
 Frc consts  --      1.1218                 1.1444                 1.4319
 IR Inten    --      0.6139                 1.9150                10.6252

                     64                     65                     66
                      A                      A                      A
 Frequencies --   1355.5652              1367.0646              1383.1055
 Red. masses --     10.1477                 1.4534                 1.3531
 Frc consts  --     10.9865                 1.6003                 1.5250
 IR Inten    --      6.5822                 6.1688                27.1660

                     67                     68                     69
                      A                      A                      A
 Frequencies --   1389.3353              1402.4683              1406.9042
 Red. masses --      1.5726                 1.2515                 2.6412
 Frc consts  --      1.7884                 1.4504                 3.0802
 IR Inten    --      6.1878                 4.0579               226.0316

                     70                     71                     72
                      A                      A                      A
 Frequencies --   1448.1654              1465.9563              1471.0952
 Red. masses --      2.1954                 2.7522                 1.1157
 Frc consts  --      2.7127                 3.4847                 1.4226
 IR Inten    --    690.9633               105.1472                 2.6341

                     73                     74                     75
                      A                      A                      A
 Frequencies --   1474.9385              1478.1717              1483.4418
 Red. masses --      1.2770                 1.6190                 1.1596
 Frc consts  --      1.6368                 2.0842                 1.5035
 IR Inten    --      1.2693               123.8912                 9.2117

                     76                     77                     78
                      A                      A                      A
 Frequencies --   1487.4087              1489.3943              1493.5872
 Red. masses --      1.0403                 1.2066                 1.6481
 Frc consts  --      1.3561                 1.5769                 2.1662
 IR Inten    --      9.5264                 6.8741                23.6223

                     79                     80                     81
                      A                      A                      A
 Frequencies --   1495.7306              1503.1419              1505.0447
 Red. masses --      1.4970                 2.2255                 1.1943
 Frc consts  --      1.9732                 2.9626                 1.5938
 IR Inten    --     94.5404               535.8421               102.8611

                     82                     83                     84
                      A                      A                      A
 Frequencies --   1541.9227              1608.1017              1626.6638
 Red. masses --      4.6952                 7.7712                 5.8935
 Frc consts  --      6.5771                11.8404                 9.1879
 IR Inten    --     20.1710                 6.6933                 2.2872

                     85                     86                     87
                      A                      A                      A
 Frequencies --   2988.3825              3000.5718              3005.6049
 Red. masses --      1.0576                 1.0594                 1.0747
 Frc consts  --      5.5647                 5.6198                 5.7202
 IR Inten    --     31.5765                29.7010                72.2307

                     88                     89                     90
                      A                      A                      A
 Frequencies --   3008.1064              3010.3461              3012.6489
 Red. masses --      1.0503                 1.0835                 1.0356
 Frc consts  --      5.5997                 5.7850                 5.5380
 IR Inten    --     74.3178                38.1573                57.4672

                     91                     92                     93
                      A                      A                      A
 Frequencies --   3030.1439              3033.1633              3045.4234
 Red. masses --      1.0979                 1.0628                 1.1022
 Frc consts  --      5.9393                 5.7611                 6.0229
 IR Inten    --     27.6199               116.8823                73.9642

                     94                     95                     96
                      A                      A                      A
 Frequencies --   3062.7370              3071.3964              3074.2126
 Red. masses --      1.0893                 1.1027                 1.1039
 Frc consts  --      6.0204                 6.1287                 6.1469
 IR Inten    --     41.2527                85.7494               111.3220

                     97                     98                     99
                      A                      A                      A
 Frequencies --   3075.9774              3122.6033              3156.3693
 Red. masses --      1.1011                 1.0968                 1.0859
 Frc consts  --      6.1384                 6.3010                 6.3740
 IR Inten    --     73.8634                14.8325                10.5297

                    100                    101                    102
                      A                      A                      A
 Frequencies --   3170.7612              3187.3587              3191.2700
 Red. masses --      1.0905                 1.0919                 1.0938
 Frc consts  --      6.4596                 6.5356                 6.5634
 IR Inten    --     25.7212                21.2523                35.5777

 - Thermochemistry -
 -------------------
 Temperature   298.150 Kelvin.  Pressure   1.00000 Atm.
 Atom     1 has atomic number  6 and mass  12.00000

 Molecular mass:   242.13068 amu.
 Principal axes and moments of inertia in atomic units:
                           1         2         3
     Eigenvalues --  2200.998028967.95532**********
           X            0.83854   0.04595   0.54290
           Y           -0.48843  -0.37815   0.78641
           Z           -0.24144   0.92460   0.29465
 This molecule is an asymmetric top.
 Rotational symmetry number  1.
 Warning -- assumption of classical behavior for rotation
           may cause significant error
 Rotational temperatures (Kelvin)      0.03935     0.00966     0.00816
 Rotational constants (GHZ):           0.81996     0.20124     0.17001
 Zero-point vibrational energy     783534.7 (Joules/Mol)
                                  187.26929 (Kcal/Mol)
 Warning -- explicit consideration of  25 degrees of freedom as
           vibrations may cause significant error
 Vibrational temperatures:     39.07    53.09    79.75   115.72   146.35
          (Kelvin)            159.85   172.53   204.76   215.09   232.78
                              274.15   348.15   370.64   409.56   487.57
                              496.75   504.47   558.84   585.85   614.95
                              627.18   648.26   694.79   756.00   812.02
                              913.34   969.10   970.82   994.98  1035.73
                             1048.52  1084.50  1131.81  1144.93  1175.81
                             1236.09  1275.58  1281.15  1319.33  1403.31
                             1416.67  1422.97  1437.09  1439.91  1479.28
                             1494.66  1499.25  1525.56  1528.40  1592.75
                             1614.71  1635.06  1651.44  1702.23  1734.76
                             1761.70  1795.26  1810.65  1833.07  1866.40
                             1903.40  1909.80  1913.34  1950.36  1966.90
                             1989.98  1998.94  2017.84  2024.22  2083.59
                             2109.18  2116.58  2122.11  2126.76  2134.34
                             2140.05  2142.91  2148.94  2152.02  2162.69
                             2165.42  2218.48  2313.70  2340.41  4299.62
                             4317.15  4324.40  4327.99  4331.22  4334.53
                             4359.70  4364.05  4381.68  4406.60  4419.05
                             4423.11  4425.65  4492.73  4541.31  4562.02
                             4585.90  4591.53

 Zero-point correction=                           0.298433 (Hartree/Particle)
 Thermal correction to Energy=                    0.315787
 Thermal correction to Enthalpy=                  0.316731
 Thermal correction to Gibbs Free Energy=         0.251514
 Sum of electronic and zero-point Energies=           -771.060355
 Sum of electronic and thermal Energies=              -771.043000
 Sum of electronic and thermal Enthalpies=            -771.042056
 Sum of electronic and thermal Free Energies=         -771.107274

                     E (Thermal)             CV                S
                      KCal/Mol        Cal/Mol-Kelvin    Cal/Mol-Kelvin
 Total                  198.159             65.890            137.262
 Electronic               0.000              0.000              1.377
 Translational            0.889              2.981             42.354
 Rotational               0.889              2.981             33.704
 Vibrational            196.382             59.929             59.826
 Vibration     1          0.593              1.984              6.027
 Vibration     2          0.594              1.982              5.419
 Vibration     3          0.596              1.975              4.614
 Vibration     4          0.600              1.962              3.880
 Vibration     5          0.604              1.948              3.421
 Vibration     6          0.607              1.940              3.250
 Vibration     7          0.609              1.933              3.102
 Vibration     8          0.616              1.911              2.773
 Vibration     9          0.618              1.903              2.679
 Vibration    10          0.622              1.889              2.529
 Vibration    11          0.634              1.853              2.223
 Vibration    12          0.658              1.776              1.788
 Vibration    13          0.667              1.750              1.678
 Vibration    14          0.683              1.702              1.506
 Vibration    15          0.719              1.598              1.217
 Vibration    16          0.724              1.585              1.188
 Vibration    17          0.728              1.574              1.163
 Vibration    18          0.757              1.495              1.006
 Vibration    19          0.772              1.455              0.937
 Vibration    20          0.789              1.411              0.867
 Vibration    21          0.796              1.392              0.840
 Vibration    22          0.809              1.360              0.794
 Vibration    23          0.839              1.288              0.702
 Vibration    24          0.880              1.194              0.597
 Vibration    25          0.920              1.108              0.515

 Optimization completed.
    -- Stationary point found.
 Normal termination of Gaussian 16 at Sun Feb 11 02:57:04 2024.
