 Q-Chem 5.4, Q-Chem, Inc., Pleasanton, CA (2021)
 Q-Chem 5.4.0 for Intel X86 EM64T Linux

User input:
--------------------------------------------------------------
$molecule
-1 2
C                  0.6439000000      1.4196060000     -0.5095210000
C                 -0.4767000000      0.5420660000     -0.2626090000
C                 -0.3388120000     -0.7511990000      0.1684740000
C                  0.9830050000     -1.3182800000      0.4003600000
C                  2.1258600000     -0.4447050000      0.1587720000
C                  1.9695220000      0.8566600000     -0.2737070000
C                  3.1568630000      1.7535960000     -0.5220460000
C                  3.4966090000     -1.0282910000      0.4028500000
O                  0.4750000000      2.6106680000     -0.9091460000
O                  1.1230640000     -2.5169290000      0.7921150000
C                 -1.5230880000     -1.6744790000      0.4002720000
C                 -2.8041820000     -0.9796410000      0.7579730000
C                 -3.9837630000     -0.9990750000      0.1224110000
C                 -4.2562110000     -1.7442150000     -1.1609310000
C                 -5.1705390000     -0.2345850000      0.6603890000
H                 -1.4605550000      0.9665880000     -0.4417180000
H                  3.7599510000      1.8918440000      0.3847590000
H                  2.8047200000      2.7292460000     -0.8593750000
H                  3.8285620000      1.3388510000     -1.2848080000
H                  3.3950040000     -2.0585760000      0.7452740000
H                  4.0516370000     -0.4583800000      1.1590600000
H                  4.1095480000     -1.0199920000     -0.5077910000
H                 -1.2371080000     -2.3548570000      1.2114260000
H                 -1.6508360000     -2.3246160000     -0.4728290000
H                 -2.7436490000     -0.3751790000      1.6630620000
H                 -3.3726700000     -2.2483930000     -1.5511840000
H                 -4.6207870000     -1.0567040000     -1.9349170000
H                 -5.0418510000     -2.4982480000     -1.0174370000
H                 -4.9241660000      0.2906390000      1.5860600000
H                 -6.0180710000     -0.9036210000      0.8628950000
H                 -5.5259150000      0.5077330000     -0.0663830000
$end
$rem
MAX_SCF_CYCLES=200
BASIS  =  6-311++G(d,p)
GUI  =  2
JOB_TYPE  =  SP
THRESH = 14
SCF_CONVERGENCE = 8
METHOD  =  B3LYP
SOLVENT_METHOD = COSMO
$end
$solvent
dielectric 37.219
opticaldielectric 1.43
$end

--------------------------------------------------------------

             Standard Nuclear Orientation (Angstroms)
    I     Atom           X                Y                Z
 ----------------------------------------------------------------
    1      C       1.3452458765    -1.5647484233     0.0693668414
    2      C       0.0624126775    -0.9020302019     0.0254363300
    3      C      -0.0793186423     0.4592449044    -0.0395431399
    4      C       1.0914119700     1.3260497424    -0.0638611476
    5      C       2.3950822985     0.6730522368    -0.0231975831
    6      C       2.5204724871    -0.7000012783     0.0402993776
    7      C       3.8726308173    -1.3676867847     0.0828318583
    8      C       3.6100057253     1.5686900701    -0.0530882065
    9      O       1.4348384440    -2.8277317384     0.1302138306
   10      O       0.9722023872     2.5881525916    -0.1161430957
   11      C      -1.4335876854     1.1479121418    -0.0590036223
   12      C      -2.5502873552     0.3275304052    -0.6351176234
   13      C      -3.6948956120    -0.0664944505    -0.0603616548
   14      C      -4.0889517574     0.2344105050     1.3646310411
   15      C      -4.7086681554    -0.8847013528    -0.8252833880
   16      H      -0.8083471147    -1.5512484003     0.0491584389
   17      H       4.4723120802    -1.1307491509    -0.8056307994
   18      H       3.7371131118    -2.4487258581     0.1345806976
   19      H       4.4596416465    -1.0445507505     0.9523145896
   20      H       3.2902862400     2.6095700817    -0.1115108488
   21      H       4.2551415125     1.3490456634    -0.9134743660
   22      H       4.2301649225     1.4418939908     0.8437704481
   23      H      -1.3115150039     2.0647206004    -0.6482659626
   24      H      -1.6749648306     1.4992070540     0.9507646604
   25      H      -2.3847722025     0.0140473085    -1.6659220344
   26      H      -3.3209756150     0.7851552705     1.9068767478
   27      H      -4.2871969846    -0.6952311415     1.9133628536
   28      H      -5.0164425770     0.8217250945     1.3993996346
   29      H      -4.3782038315    -1.0800060135    -1.8480620178
   30      H      -5.6803317519    -0.3742201813    -0.8722639075
   31      H      -4.8875521186    -1.8513654781    -0.3363185108
 ----------------------------------------------------------------

   19    -655.6919842524      8.14e-09  Convergence criterion met
 Total energy in the final basis set =     -655.6919842524
   14    -655.7781970404      6.16e-09  Convergence criterion met
 Total energy in the final basis set =     -655.7781970404

                    Orbital Energies (a.u.)
 --------------------------------------------------------------

 Alpha MOs
 -- Occupied --
-19.0748 -19.0748 -10.2148 -10.2142 -10.1711 -10.1673 -10.1639 -10.1629
-10.1611 -10.1558 -10.1555 -10.1548 -10.1518 -10.1496 -10.1494  -0.9969
 -0.9944  -0.8284  -0.8098  -0.7790  -0.7242  -0.7192  -0.6862  -0.6643
 -0.6569  -0.6203  -0.5584  -0.5395  -0.5111  -0.4882  -0.4614  -0.4520
 -0.4318  -0.4290  -0.4262  -0.4206  -0.4009  -0.3942  -0.3910  -0.3863
 -0.3839  -0.3802  -0.3788  -0.3723  -0.3646  -0.3610  -0.3541  -0.3452
 -0.3343  -0.3225  -0.2726  -0.2469  -0.2410  -0.2346  -0.2253  -0.1577

 Beta MOs
 -- Occupied --
-19.0683 -19.0682 -10.2131 -10.2123 -10.1711 -10.1660 -10.1631 -10.1618
-10.1612 -10.1558 -10.1555 -10.1548 -10.1509 -10.1496 -10.1495  -0.9853
 -0.9826  -0.8238  -0.8087  -0.7773  -0.7222  -0.7165  -0.6862  -0.6599
 -0.6537  -0.6168  -0.5549  -0.5353  -0.5105  -0.4864  -0.4602  -0.4487
 -0.4293  -0.4260  -0.4237  -0.4163  -0.3973  -0.3901  -0.3869  -0.3839
 -0.3808  -0.3795  -0.3787  -0.3643  -0.3596  -0.3541  -0.3429  -0.3387
 -0.3305  -0.3213  -0.2458  -0.2412  -0.2357  -0.2273  -0.2214

          Ground-State Mulliken Net Atomic Charges

     Atom                 Charge (a.u.)    Spin (a.u.)
  --------------------------------------------------------
      1 C                    -0.947060       0.119710
      2 C                    -0.805142       0.020944
      3 C                     1.160751       0.075494
      4 C                    -0.968345       0.137309
      5 C                     0.168467       0.034216
      6 C                     0.965516       0.114673
      7 C                    -0.461137       0.008826
      8 C                    -0.507002      -0.006712
      9 O                    -0.540423       0.228829
     10 O                    -0.513522       0.239303
     11 C                    -0.521970       0.019112
     12 C                     0.347255      -0.004174
     13 C                     0.227974       0.000164
     14 C                    -0.625543      -0.000672
     15 C                    -0.638164       0.000196
     16 H                     0.179343      -0.007329
     17 H                     0.158673       0.003744
     18 H                     0.180488      -0.001722
     19 H                     0.158933       0.003670
     20 H                     0.188458      -0.001595
     21 H                     0.156982       0.002834
     22 H                     0.159269       0.002873
     23 H                     0.200337       0.001335
     24 H                     0.174830       0.009395
     25 H                     0.178746       0.000272
     26 H                     0.142029      -0.000544
     27 H                     0.156652      -0.000013
     28 H                     0.156980      -0.000005
     29 H                     0.158384      -0.000090
     30 H                     0.150594      -0.000032
     31 H                     0.157647      -0.000010
  --------------------------------------------------------
  Sum of atomic charges =    -1.000000

                    Cartesian Multipole Moments
 -----------------------------------------------------------------
    Charge (ESU x 10^10)
                -4.8032
    Dipole Moment (Debye)
         X      -5.5583      Y       1.1737      Z       0.2898
       Tot       5.6883
    Quadrupole Moments (Debye-Ang)
        XX     -95.1513     XY       5.8200     YY    -137.6176
        XZ      -1.7685     YZ       2.4091     ZZ     -94.3472

 Total job time:  245.46s(wall), 1905.93s(cpu)
        *  Thank you very much for using Q-Chem.  Have a nice day.  *
