 Gaussian 16, Revision A.03,
 Gaussian 16:  ES64L-G16RevA.03 25-Dec-2016

 ----------------------------------------------------------------------
 #P UB3LYP/6-311++G(d,p) nosym opt freq SCRF=(PCM,Solvent=n,n-DiMethylF
 ormamide)
 ----------------------------------------------------------------------

 -------
 Reduced
 -------
 Symbolic Z-matrix:
 Charge = -2 Multiplicity = 1

 SCF Done:  E(UB3LYP) =  -726.313289937     A.U. after   19 cycles
 SCF Done:  E(UB3LYP) =  -726.313684254     A.U. after   17 cycles
 SCF Done:  E(UB3LYP) =  -726.314993993     A.U. after   15 cycles
 SCF Done:  E(UB3LYP) =  -726.314660312     A.U. after   15 cycles
 SCF Done:  E(UB3LYP) =  -726.315294130     A.U. after   14 cycles
 SCF Done:  E(UB3LYP) =  -726.315306479     A.U. after   13 cycles
 SCF Done:  E(UB3LYP) =  -726.315327853     A.U. after   12 cycles
 SCF Done:  E(UB3LYP) =  -726.315330435     A.U. after   12 cycles
 SCF Done:  E(UB3LYP) =  -726.315330716     A.U. after   11 cycles
 Optimization completed.
    -- Stationary point found.
 Normal termination of Gaussian 16 at Sat Feb 10 12:51:13 2024.

 ----------------------------------------------------------------------
 #P Geom=AllCheck Guess=TCheck SCRF=Check GenChk UB3LYP/6-311++G(d,p) F
 req
 ----------------------------------------------------------------------

 Structure from the checkpoint file:  "076-an.chk"
 -------
 Reduced
 -------
 Charge = -2 Multiplicity = 1

                          Input orientation:
 ---------------------------------------------------------------------
 Center     Atomic      Atomic             Coordinates (Angstroms)
 Number     Number       Type             X           Y           Z
 ---------------------------------------------------------------------
      1          6           0        0.303299    1.695902   -1.773842
      2          6           0       -1.118031    1.873217   -1.604341
      3          6           0       -2.028121    0.846196   -1.719733
      4          6           0       -1.652893   -0.516616   -2.011082
      5          6           0       -0.269746   -0.711846   -2.137781
      6          6           0        0.709839    0.321633   -1.982737
      7          8           0        1.092640    2.712808   -1.793313
      8          8           0       -2.556383   -1.462785   -2.120590
      9          6           0        3.192212    0.728872   -1.413809
     10          6           0        4.399665    0.977124   -2.077242
     11          6           0        3.075956    1.098981   -0.068111
     12          6           0        4.138512    1.707037    0.596176
     13          6           0        5.454429    1.614361   -1.424204
     14          6           0        5.329455    1.977230   -0.082499
     15          1           0       -1.462575    2.886382   -1.407625
     16          1           0       -3.089431    1.054715   -1.589989
     17          1           0        0.093211   -1.718500   -2.324985
     18          1           0        4.505248    0.676286   -3.113531
     19          1           0        2.146596    0.906362    0.455537
     20          1           0        4.037996    1.975454    1.642520
     21          1           0        6.375900    1.819582   -1.958769
     22          1           0        6.152963    2.460933    0.431379
     23          6           0        2.106541   -0.061067   -2.102661
     24          8           0        2.478235   -1.097363   -2.698613
 ---------------------------------------------------------------------

 SCF Done:  E(UB3LYP) =  -726.315330716     A.U. after    1 cycles

 Alpha  occ. eigenvalues --  -19.07693 -19.02918 -19.01410 -10.22759 -10.18973
 Alpha  occ. eigenvalues --  -10.17358 -10.17150 -10.17137 -10.17089 -10.17024
 Alpha  occ. eigenvalues --  -10.16874 -10.16855 -10.14021 -10.13386 -10.13362
 Alpha  occ. eigenvalues --  -10.11973  -1.00070  -0.94465  -0.91948  -0.85242
 Alpha  occ. eigenvalues --   -0.78666  -0.75385  -0.74310  -0.71688  -0.65945
 Alpha  occ. eigenvalues --   -0.62428  -0.60176  -0.58267  -0.54736  -0.53128
 Alpha  occ. eigenvalues --   -0.48953  -0.45441  -0.44902  -0.43748  -0.43371
 Alpha  occ. eigenvalues --   -0.42286  -0.41789  -0.40452  -0.38821  -0.37523
 Alpha  occ. eigenvalues --   -0.36572  -0.35951  -0.35258  -0.34433  -0.33890
 Alpha  occ. eigenvalues --   -0.32945  -0.32095  -0.31477  -0.25681  -0.25295
 Alpha  occ. eigenvalues --   -0.23316  -0.22958  -0.22028  -0.19959  -0.19470
 Alpha  occ. eigenvalues --   -0.12853
 Alpha virt. eigenvalues --   -0.04245  -0.01020  -0.00245   0.00077   0.00957
 Alpha virt. eigenvalues --    0.01711   0.02097   0.02641   0.03532   0.04210
 Alpha virt. eigenvalues --    0.04511   0.05069   0.05529   0.05730   0.06381

  Beta  occ. eigenvalues --  -19.07693 -19.02918 -19.01410 -10.22759 -10.18973
  Beta  occ. eigenvalues --  -10.17358 -10.17150 -10.17137 -10.17089 -10.17024
  Beta  occ. eigenvalues --  -10.16874 -10.16855 -10.14021 -10.13386 -10.13362
  Beta  occ. eigenvalues --  -10.11973  -1.00070  -0.94465  -0.91948  -0.85242
  Beta  occ. eigenvalues --   -0.78666  -0.75385  -0.74310  -0.71688  -0.65945
  Beta  occ. eigenvalues --   -0.62428  -0.60176  -0.58267  -0.54736  -0.53128
  Beta  occ. eigenvalues --   -0.48953  -0.45441  -0.44902  -0.43748  -0.43371
  Beta  occ. eigenvalues --   -0.42286  -0.41789  -0.40452  -0.38821  -0.37523
  Beta  occ. eigenvalues --   -0.36572  -0.35951  -0.35258  -0.34433  -0.33890
  Beta  occ. eigenvalues --   -0.32945  -0.32095  -0.31477  -0.25681  -0.25295
  Beta  occ. eigenvalues --   -0.23316  -0.22958  -0.22028  -0.19959  -0.19470
  Beta  occ. eigenvalues --   -0.12853
  Beta virt. eigenvalues --   -0.04245  -0.01020  -0.00245   0.00077   0.00957
  Beta virt. eigenvalues --    0.01711   0.02097   0.02641   0.03532   0.04210
  Beta virt. eigenvalues --    0.04511   0.05069   0.05529   0.05730   0.06381

 Mulliken charges and spin densities:
               1          2
     1  C   -1.122520   0.000000
     2  C   -0.084723  -0.000000
     3  C    0.030962  -0.000000
     4  C   -0.568286  -0.000000
     5  C    0.104781  -0.000000
     6  C    1.334743   0.000000
     7  O   -0.570946  -0.000000
     8  O   -0.744441   0.000000
     9  C    1.228973   0.000000
    10  C    0.256821   0.000000
    11  C   -0.583852   0.000000
    12  C   -0.479374  -0.000000
    13  C   -0.295164  -0.000000
    14  C   -0.228659   0.000000
    15  H    0.156891   0.000000
    16  H    0.156349   0.000000
    17  H    0.165624  -0.000000
    18  H    0.204590   0.000000
    19  H    0.184781   0.000000
    20  H    0.185867  -0.000000
    21  H    0.186855  -0.000000
    22  H    0.175543   0.000000
    23  C   -1.299596  -0.000000
    24  O   -0.395221  -0.000000
 Sum of Mulliken charges =  -2.00000   0.00000

 Dipole moment (field-independent basis, Debye):
    X=              1.6247    Y=             -0.0421    Z=             20.8235  Tot=             20.8868
 Quadrupole moment (field-independent basis, Debye-Ang):
   XX=           -141.5276   YY=           -139.5533   ZZ=           -143.3777
   XY=            -16.2482   XZ=             -2.5342   YZ=             -3.0789

  Exact polarizability: 394.255   9.339 269.354  -0.202  38.256 199.596
 Approx polarizability: 416.538  -3.556 321.817 -15.734  51.030 231.633

                      1                      2                      3
                      A                      A                      A
 Frequencies --     34.8065                48.3917                75.3211
 Red. masses --      6.3427                 5.0925                 5.1667
 Frc consts  --      0.0045                 0.0070                 0.0173
 IR Inten    --      2.3685                 0.8262                 5.3103

                      4                      5                      6
                      A                      A                      A
 Frequencies --    119.2227               151.3406               194.4540
 Red. masses --      6.6362                 9.8748                 5.9822
 Frc consts  --      0.0556                 0.1333                 0.1333
 IR Inten    --      6.0811                25.9283                12.7435

                      7                      8                      9
                      A                      A                      A
 Frequencies --    204.3560               256.3868               336.2019
 Red. masses --      6.8249                 6.3874                 8.2726
 Frc consts  --      0.1679                 0.2474                 0.5509
 IR Inten    --      3.4976                10.6366                 6.4561

                     10                     11                     12
                      A                      A                      A
 Frequencies --    346.8138               388.1856               412.4355
 Red. masses --      7.4888                 5.9444                 2.8868
 Frc consts  --      0.5307                 0.5278                 0.2893
 IR Inten    --      6.4029                14.0327                 1.0512

                     13                     14                     15
                      A                      A                      A
 Frequencies --    428.3649               446.9274               479.6725
 Red. masses --      7.1406                 4.2103                11.0304
 Frc consts  --      0.7720                 0.4955                 1.4953
 IR Inten    --      4.0975                 3.8020                38.0044

                     16                     17                     18
                      A                      A                      A
 Frequencies --    527.3349               564.4424               618.9858
 Red. masses --      3.8625                 2.4552                 5.2331
 Frc consts  --      0.6328                 0.4609                 1.1813
 IR Inten    --     10.6378                26.9662                27.0029

                     19                     20                     21
                      A                      A                      A
 Frequencies --    630.9488               644.0014               696.1997
 Red. masses --      6.3848                 5.9255                 5.6297
 Frc consts  --      1.4976                 1.4479                 1.6077
 IR Inten    --      1.7013                42.4825                18.4348

                     22                     23                     24
                      A                      A                      A
 Frequencies --    707.1985               720.8340               753.5239
 Red. masses --      1.6032                 4.6005                 2.4852
 Frc consts  --      0.4724                 1.4084                 0.8314
 IR Inten    --     77.9829                32.8886                91.1284

                     25                     26                     27
                      A                      A                      A
 Frequencies --    790.1838               818.5959               834.7174
 Red. masses --      3.1699                 3.8197                 2.2223
 Frc consts  --      1.1661                 1.5081                 0.9123
 IR Inten    --     62.0269               158.7952                45.6084

                     28                     29                     30
                      A                      A                      A
 Frequencies --    839.3760               854.6776               860.1115
 Red. masses --      2.0738                 1.2989                 4.4978
 Frc consts  --      0.8608                 0.5590                 1.9605
 IR Inten    --     73.1828                 2.9074                20.0778

                     31                     32                     33
                      A                      A                      A
 Frequencies --    931.9424               952.7580               984.3235
 Red. masses --      1.5087                 1.3105                 2.9016
 Frc consts  --      0.7720                 0.7009                 1.6564
 IR Inten    --     13.5201                 5.7111                54.5006

                     34                     35                     36
                      A                      A                      A
 Frequencies --    986.8200              1001.5347              1012.3402
 Red. masses --      1.4120                 1.2843                 6.1434
 Frc consts  --      0.8101                 0.7590                 3.7095
 IR Inten    --      1.8094                 1.3370                 0.5976

                     37                     38                     39
                      A                      A                      A
 Frequencies --   1042.8794              1087.8359              1097.3230
 Red. masses --      2.1886                 1.9493                 1.9431
 Frc consts  --      1.4024                 1.3591                 1.3785
 IR Inten    --     11.3828                97.1927                40.4384

                     40                     41                     42
                      A                      A                      A
 Frequencies --   1136.2591              1171.8698              1185.9949
 Red. masses --      1.5613                 1.1087                 1.1949
 Frc consts  --      1.1876                 0.8970                 0.9903
 IR Inten    --    472.1936                 0.0493                50.0634

                     43                     44                     45
                      A                      A                      A
 Frequencies --   1197.7952              1227.2885              1262.3020
 Red. masses --      2.5646                 2.2201                 4.7631
 Frc consts  --      2.1679                 1.9702                 4.4717
 IR Inten    --    207.7805               445.3319               288.2669

                     46                     47                     48
                      A                      A                      A
 Frequencies --   1310.7879              1319.2666              1341.2783
 Red. masses --      2.7078                 3.3905                 1.9127
 Frc consts  --      2.7412                 3.4768                 2.0273
 IR Inten    --    336.3577                56.9564                42.9522

                     49                     50                     51
                      A                      A                      A
 Frequencies --   1349.6081              1425.7022              1448.4051
 Red. masses --      5.3481                 5.3333                 3.8030
 Frc consts  --      5.7394                 6.3871                 4.7006
 IR Inten    --    520.0344               106.4865              1578.6913

                     52                     53                     54
                      A                      A                      A
 Frequencies --   1466.2753              1482.3784              1512.7008
 Red. masses --      2.1949                 4.2983                 2.3088
 Frc consts  --      2.7804                 5.5650                 3.1128
 IR Inten    --     56.3872               633.2352                29.2267

                     55                     56                     57
                      A                      A                      A
 Frequencies --   1537.5855              1610.6157              1616.8171
 Red. masses --      8.6547                 5.6653                 6.5193
 Frc consts  --     12.0553                 8.6588                10.0410
 IR Inten    --    939.7265                26.4295                14.0486

                     58                     59                     60
                      A                      A                      A
 Frequencies --   1630.2987              3106.2199              3131.9430
 Red. masses --      5.6709                 1.0847                 1.0927
 Frc consts  --      8.8805                 6.1665                 6.3149
 IR Inten    --      2.6640                66.3847               136.5745

                     61                     62                     63
                      A                      A                      A
 Frequencies --   3140.5461              3155.3075              3162.4270
 Red. masses --      1.0874                 1.0850                 1.0879
 Frc consts  --      6.3190                 6.3646                 6.4102
 IR Inten    --     44.9214                 2.7947                 8.9145

                     64                     65                     66
                      A                      A                      A
 Frequencies --   3173.6504              3179.2571              3185.2894
 Red. masses --      1.0911                 1.0936                 1.0976
 Frc consts  --      6.4749                 6.5125                 6.5615
 IR Inten    --     27.0066                55.3968                21.9162

 - Thermochemistry -
 -------------------
 Temperature   298.150 Kelvin.  Pressure   1.00000 Atm.
 Atom     1 has atomic number  6 and mass  12.00000

 Molecular mass:   212.04734 amu.
 Principal axes and moments of inertia in atomic units:
                           1         2         3
     Eigenvalues --  1388.701855776.467116477.94996
           X            0.95181  -0.29866  -0.06977
           Y            0.24420   0.87561  -0.41674
           Z            0.18556   0.37962   0.90634
 This molecule is an asymmetric top.
 Rotational symmetry number  1.
 Warning -- assumption of classical behavior for rotation
           may cause significant error
 Rotational temperatures (Kelvin)      0.06237     0.01499     0.01337
 Rotational constants (GHZ):           1.29959     0.31243     0.27860
 Zero-point vibrational energy     450690.9 (Joules/Mol)
                                  107.71772 (Kcal/Mol)
 Warning -- explicit consideration of  18 degrees of freedom as
           vibrations may cause significant error
 Vibrational temperatures:     50.08    69.62   108.37   171.53   217.75
          (Kelvin)            279.78   294.02   368.88   483.72   498.99
                              558.51   593.40   616.32   643.03   690.14
                              758.72   812.11   890.58   907.79   926.57
                             1001.68  1017.50  1037.12  1084.15  1136.90
                             1177.78  1200.97  1207.67  1229.69  1237.51
                             1340.86  1370.81  1416.22  1419.81  1440.99
                             1456.53  1500.47  1565.15  1578.80  1634.82
                             1686.06  1706.38  1723.36  1765.79  1816.17
                             1885.93  1898.13  1929.80  1941.79  2051.27
                             2083.93  2109.64  2132.81  2176.44  2212.24
                             2317.32  2326.24  2345.64  4469.16  4506.17
                             4518.55  4539.78  4550.03  4566.18  4574.24
                             4582.92

 Zero-point correction=                           0.171659 (Hartree/Particle)
 Thermal correction to Energy=                    0.184233
 Thermal correction to Enthalpy=                  0.185178
 Thermal correction to Gibbs Free Energy=         0.131503
 Sum of electronic and zero-point Energies=           -726.143672
 Sum of electronic and thermal Energies=              -726.131097
 Sum of electronic and thermal Enthalpies=            -726.130153
 Sum of electronic and thermal Free Energies=         -726.183828

                     E (Thermal)             CV                S
                      KCal/Mol        Cal/Mol-Kelvin    Cal/Mol-Kelvin
 Total                  115.608             49.055            112.968
 Electronic               0.000              0.000              0.000
 Translational            0.889              2.981             41.958
 Rotational               0.889              2.981             32.319
 Vibrational            113.831             43.093             38.691
 Vibration     1          0.594              1.983              5.535
 Vibration     2          0.595              1.978              4.882
 Vibration     3          0.599              1.965              4.009
 Vibration     4          0.609              1.933              3.113
 Vibration     5          0.619              1.901              2.655
 Vibration     6          0.635              1.848              2.185
 Vibration     7          0.640              1.834              2.094
 Vibration     8          0.666              1.752              1.686
 Vibration     9          0.717              1.603              1.230
 Vibration    10          0.725              1.582              1.181
 Vibration    11          0.756              1.495              1.007
 Vibration    12          0.776              1.443              0.918
 Vibration    13          0.790              1.408              0.864
 Vibration    14          0.806              1.368              0.805
 Vibration    15          0.836              1.295              0.711
 Vibration    16          0.882              1.189              0.593
 Vibration    17          0.920              1.108              0.515
 Vibration    18          0.979              0.992              0.418

                           ! Non-Optimized Parameters !
 Normal termination of Gaussian 16 at Sat Feb 10 13:32:43 2024.
