 Q-Chem 5.4, Q-Chem, Inc., Pleasanton, CA (2021)
 Q-Chem 5.4.0 for Intel X86 EM64T Linux

User input:
--------------------------------------------------------------
$molecule
-1 2
C                 -2.8901220000     -1.9246540000     -0.1390790000
C                 -2.3999270000     -0.4961670000     -0.0503860000
C                 -3.3553240000      0.5054540000      0.0501040000
C                 -3.0039710000      1.8659470000      0.1374690000
C                 -1.6759530000      2.2256800000      0.1236710000
C                 -0.6622990000      1.2490810000      0.0233590000
C                  0.7253490000      1.7239800000      0.0161090000
O                  1.0075950000      2.9469810000      0.0957450000
C                  1.7610900000      0.7018320000     -0.0875970000
C                  3.1210880000      1.0849900000     -0.1002880000
C                  4.1263100000      0.1445450000     -0.1971040000
C                  3.7990020000     -1.2271520000     -0.2854810000
C                  2.4760090000     -1.6217210000     -0.2747160000
C                  1.4297110000     -0.6773870000     -0.1764220000
C                  0.0420300000     -1.1566120000     -0.1698430000
O                 -0.1998940000     -2.3888050000     -0.2505040000
C                 -1.0115260000     -0.1397800000     -0.0658870000
H                 -3.9851250000     -1.9387670000     -0.1083230000
H                 -2.4993290000     -2.5368110000      0.6758450000
H                 -2.5495290000     -2.4120860000     -1.0544590000
H                 -4.4051060000      0.2249390000      0.0610750000
H                 -3.7802540000      2.6217720000      0.2149170000
H                 -1.3608200000      3.2602040000      0.1885780000
H                  3.3393300000      2.1445050000     -0.0309630000
H                  5.1668410000      0.4560730000     -0.2054730000
H                  4.5883740000     -1.9693600000     -0.3617560000
H                  2.1964470000     -2.6666800000     -0.3412110000
$end

$rem
BASIS  =  6-311++G(d,p)
GUI  =  2
JOB_TYPE  =  SP
METHOD  =  B3LYP
SCF_CONVERGENCE  = 8
SOLVENT_METHOD = sm12
$end

$smx
solvent dimethylformamide
charges CM5
$end

--------------------------------------------------------------

             Standard Nuclear Orientation (Angstroms)
    I     Atom           X                Y                Z
 ----------------------------------------------------------------
    1      C      -2.8901220000    -1.9246540000    -0.1390790000
    2      C      -2.3999270000    -0.4961670000    -0.0503860000
    3      C      -3.3553240000     0.5054540000     0.0501040000
    4      C      -3.0039710000     1.8659470000     0.1374690000
    5      C      -1.6759530000     2.2256800000     0.1236710000
    6      C      -0.6622990000     1.2490810000     0.0233590000
    7      C       0.7253490000     1.7239800000     0.0161090000
    8      O       1.0075950000     2.9469810000     0.0957450000
    9      C       1.7610900000     0.7018320000    -0.0875970000
   10      C       3.1210880000     1.0849900000    -0.1002880000
   11      C       4.1263100000     0.1445450000    -0.1971040000
   12      C       3.7990020000    -1.2271520000    -0.2854810000
   13      C       2.4760090000    -1.6217210000    -0.2747160000
   14      C       1.4297110000    -0.6773870000    -0.1764220000
   15      C       0.0420300000    -1.1566120000    -0.1698430000
   16      O      -0.1998940000    -2.3888050000    -0.2505040000
   17      C      -1.0115260000    -0.1397800000    -0.0658870000
   18      H      -3.9851250000    -1.9387670000    -0.1083230000
   19      H      -2.4993290000    -2.5368110000     0.6758450000
   20      H      -2.5495290000    -2.4120860000    -1.0544590000
   21      H      -4.4051060000     0.2249390000     0.0610750000
   22      H      -3.7802540000     2.6217720000     0.2149170000
   23      H      -1.3608200000     3.2602040000     0.1885780000
   24      H       3.3393300000     2.1445050000    -0.0309630000
   25      H       5.1668410000     0.4560730000    -0.2054730000
   26      H       4.5883740000    -1.9693600000    -0.3617560000
   27      H       2.1964470000    -2.6666800000    -0.3412110000
 ----------------------------------------------------------------

   16    -728.3370521644      7.41e-09  Convergence criterion met
 Total energy in the final basis set =     -728.4244013049

                    Orbital Energies (a.u.)
 --------------------------------------------------------------

 Alpha MOs
 -- Occupied --
-19.0769 -19.0768 -10.2296 -10.2260 -10.1931 -10.1840 -10.1828 -10.1823
-10.1805 -10.1801 -10.1797 -10.1792 -10.1787 -10.1784 -10.1770 -10.1745
-10.1639  -1.0050  -1.0023  -0.8676  -0.8599  -0.7932  -0.7777  -0.7579
 -0.7456  -0.6955  -0.6671  -0.6401  -0.6244  -0.5864  -0.5551  -0.5410
 -0.5273  -0.4779  -0.4728  -0.4664  -0.4643  -0.4339  -0.4323  -0.4226
 -0.4157  -0.4103  -0.4092  -0.4073  -0.3846  -0.3808  -0.3749  -0.3652
 -0.3534  -0.3515  -0.3430  -0.3395  -0.2727  -0.2642  -0.2573  -0.2559
 -0.2457  -0.2366  -0.1453

 Beta MOs
 -- Occupied --
-19.0710 -19.0708 -10.2283 -10.2245 -10.1931 -10.1832 -10.1824 -10.1817
-10.1800 -10.1791 -10.1790 -10.1789 -10.1785 -10.1781 -10.1763 -10.1745
-10.1639  -0.9948  -0.9919  -0.8650  -0.8588  -0.7893  -0.7763  -0.7560
 -0.7437  -0.6932  -0.6612  -0.6385  -0.6218  -0.5855  -0.5530  -0.5387
 -0.5259  -0.4752  -0.4718  -0.4647  -0.4636  -0.4320  -0.4266  -0.4210
 -0.4137  -0.4064  -0.4047  -0.4025  -0.3829  -0.3741  -0.3658  -0.3541
 -0.3527  -0.3503  -0.3378  -0.3313  -0.2593  -0.2520  -0.2508  -0.2463
 -0.2403  -0.2312

          Ground-State Mulliken Net Atomic Charges

     Atom                 Charge (a.u.)    Spin (a.u.)
  --------------------------------------------------------
      1 C                     0.540672       0.007144
      2 C                     0.114089       0.014375
      3 C                     1.325110       0.053151
      4 C                     0.996564       0.039629
      5 C                    -0.006782       0.032345
      6 C                    -1.021425       0.046480
      7 C                    -2.293428       0.074292
      8 O                    -0.297455       0.222403
      9 C                    -1.103582       0.019833
     10 C                    -0.104846       0.030581
     11 C                     1.072151       0.029536
     12 C                     0.922248       0.042189
     13 C                     0.150318       0.019550
     14 C                    -0.889332       0.044647
     15 C                    -2.159458       0.059494
     16 O                    -0.235230       0.221894
     17 C                    -0.372150       0.061348
     18 H                     0.258410      -0.000342
     19 H                     0.133186      -0.000365
     20 H                     0.133455      -0.000359
     21 H                     0.264555      -0.004183
     22 H                     0.376222      -0.002911
     23 H                     0.143914      -0.002029
     24 H                     0.156309      -0.001871
     25 H                     0.361622      -0.002423
     26 H                     0.361399      -0.003388
     27 H                     0.173462      -0.001019
  --------------------------------------------------------
  Sum of atomic charges =    -1.000000

                    Cartesian Multipole Moments
 -----------------------------------------------------------------
    Charge (ESU x 10^10)
                -4.8032
    Dipole Moment (Debye)
         X      -1.8849      Y      -1.9821      Z       0.3233
       Tot       2.7542
    Quadrupole Moments (Debye-Ang)
        XX    -106.6608     XY      -6.4171     YY    -131.6353
        XZ      -0.3017     YZ      -1.4080     ZZ    -107.0209

 Total job time:  637.52s(wall), 4745.78s(cpu)
        *  Thank you very much for using Q-Chem.  Have a nice day.  *
