 Q-Chem 5.4, Q-Chem, Inc., Pleasanton, CA (2021)
 Q-Chem 5.4.0 for Intel X86 EM64T Linux

User input:
--------------------------------------------------------------
$molecule
-1 2
C                  2.6862460000      1.3899630000      0.9129910000
C                  2.3482390000      0.5291090000     -0.3215880000
C                  3.5920200000     -0.2231270000     -0.8132730000
C                  1.1463500000     -0.3604300000     -0.0432140000
C                  1.2590490000     -1.6813860000      0.3102820000
C                  0.1182910000     -2.5222580000      0.6021550000
O                  0.2403370000     -3.7390590000      0.9292960000
C                 -1.1696790000     -1.8752970000      0.4919050000
C                 -1.3298900000     -0.5572120000      0.1392750000
C                 -2.7299240000      0.0347290000      0.0452760000
C                 -2.9599150000      1.1679220000      1.0643670000
C                 -3.0759490000      0.5018080000     -1.3821920000
C                 -0.1666510000      0.2765320000     -0.1453930000
O                 -0.2771430000      1.4996740000     -0.4696480000
H                  3.5040700000      2.0882270000      0.6936300000
H                  2.9946490000      0.7567530000      1.7524810000
H                  1.8131710000      1.9699600000      1.2173860000
H                  2.0312890000      1.2242140000     -1.1065200000
H                  4.3799230000      0.4870150000     -1.0897890000
H                  3.3656010000     -0.8391050000     -1.6884290000
H                  4.0030940000     -0.8821940000     -0.0413450000
H                  2.2285130000     -2.1650660000      0.3859380000
H                 -2.0374880000     -2.4960070000      0.7053120000
H                 -3.4229600000     -0.7780180000      0.2995150000
H                 -2.2877260000      2.0019980000      0.8562090000
H                 -3.9962150000      1.5259850000      1.0166150000
H                 -2.7694870000      0.8167000000      2.0833560000
H                 -4.1116170000      0.8615770000     -1.4307360000
H                 -2.9695310000     -0.3216700000     -2.0952920000
H                 -2.4066660000      1.3086630000     -1.6854280000
$end
$rem
MAX_SCF_CYCLES=200
BASIS  =  6-311++G(d,p)
GUI  =  2
JOB_TYPE  =  SP
METHOD  =  B3LYP
SOLVENT_METHOD = COSMO
$end
$solvent
dielectric 37.219
opticaldielectric 1.43
$end

--------------------------------------------------------------

             Standard Nuclear Orientation (Angstroms)
    I     Atom           X                Y                Z
 ----------------------------------------------------------------
    1      C      -2.5555419363    -1.7488070654     1.1365384118
    2      C      -2.2842096482    -1.0897363858    -0.2314923910
    3      C      -3.5838048763    -0.5395782857    -0.8339727831
    4      C      -1.1618726340    -0.0690398200    -0.1226483196
    5      C      -1.3858097136     1.2792380372    -0.0018830738
    6      C      -0.3204096271     2.2494490552     0.1292566201
    7      O      -0.5448668794     3.4901710258     0.2421683872
    8      C       1.0174424234     1.7020447463     0.1202715023
    9      C       1.2884831541     0.3606675663    -0.0005909485
   10      C       2.7333523148    -0.1206489166    -0.0041563889
   11      C       3.0517627710    -1.0372873274     1.1933232588
   12      C       3.1240903889    -0.7975606547    -1.3325671839
   13      C       0.2000516762    -0.6031614447    -0.1256527505
   14      O       0.4135082944    -1.8505633003    -0.2345151501
   15      H      -3.3113525287    -2.5397730011     1.0490673083
   16      H      -2.9196985847    -1.0075438102     1.8567671924
   17      H      -1.6387639478    -2.1930437886     1.5283095764
   18      H      -1.9066570980    -1.8815900875    -0.8873645547
   19      H      -4.3085276655    -1.3496206532    -0.9759662251
   20      H      -3.4050815631    -0.0678365969    -1.8045964180
   21      H      -4.0520919749     0.2068640358    -0.1837766318
   22      H      -2.3925101674     1.6867730708    -0.0017696857
   23      H       1.8295447907     2.4200052303     0.2148146186
   24      H       3.3551133121     0.7783807787     0.0990566025
   25      H       2.4523224497    -1.9475450874     1.1389845981
   26      H       4.1144795175    -1.3111762149     1.1983282093
   27      H       2.8277391380    -0.5319247053     2.1379821023
   28      H       4.1863231624    -1.0733132786    -1.3280411706
   29      H       2.9530719621    -0.1216695445    -2.1762948190
   30      H       2.5257521199    -1.6973251791    -1.4852823218
 ----------------------------------------------------------------

    9    -617.5931576916      9.54e-06  Convergence criterion met
 Total energy in the final basis set =     -617.5931576916
    4    -617.6754133208      6.75e-06  Convergence criterion met
 Total energy in the final basis set =     -617.6754133208

                    Orbital Energies (a.u.)
 --------------------------------------------------------------

 Alpha MOs
 -- Occupied --
-19.0769 -19.0711 -10.2157 -10.2138 -10.1674 -10.1660 -10.1658 -10.1655
-10.1531 -10.1527 -10.1489 -10.1483 -10.1449 -10.1447  -0.9971  -0.9922
 -0.8281  -0.8023  -0.7670  -0.7176  -0.6781  -0.6716  -0.6710  -0.6138
 -0.5935  -0.5411  -0.5315  -0.4836  -0.4626  -0.4424  -0.4412  -0.4268
 -0.4219  -0.4144  -0.4076  -0.3972  -0.3884  -0.3822  -0.3792  -0.3758
 -0.3669  -0.3586  -0.3390  -0.3336  -0.3303  -0.3268  -0.3218  -0.3164
 -0.2737  -0.2429  -0.2415  -0.2295  -0.1586

 Beta MOs
 -- Occupied --
-19.0703 -19.0641 -10.2143 -10.2120 -10.1674 -10.1656 -10.1649 -10.1647
-10.1521 -10.1518 -10.1488 -10.1482 -10.1448 -10.1446  -0.9855  -0.9798
 -0.8231  -0.8013  -0.7649  -0.7157  -0.6760  -0.6714  -0.6629  -0.6110
 -0.5911  -0.5385  -0.5291  -0.4817  -0.4586  -0.4411  -0.4394  -0.4264
 -0.4200  -0.4066  -0.4016  -0.3960  -0.3839  -0.3774  -0.3727  -0.3675
 -0.3659  -0.3431  -0.3362  -0.3330  -0.3267  -0.3242  -0.3213  -0.3135
 -0.2427  -0.2361  -0.2350  -0.2236

          Ground-State Mulliken Net Atomic Charges

     Atom                 Charge (a.u.)    Spin (a.u.)
  --------------------------------------------------------
      1 C                    -0.720751       0.010399
      2 C                     0.217002       0.002055
      3 C                    -0.579559       0.001268
      4 C                     1.085666       0.070324
      5 C                    -0.312523       0.087132
      6 C                    -0.377956       0.138073
      7 O                    -0.569693       0.220276
      8 C                    -0.379446       0.040949
      9 C                     0.785259       0.057198
     10 C                     0.256883      -0.005289
     11 C                    -0.690299       0.006248
     12 C                    -0.693250       0.007186
     13 C                    -1.157662       0.117958
     14 O                    -0.453083       0.259577
     15 H                     0.143077       0.001959
     16 H                     0.151151      -0.001000
     17 H                     0.177725      -0.001909
     18 H                     0.192670       0.002106
     19 H                     0.169719      -0.000407
     20 H                     0.139572      -0.000228
     21 H                     0.144440      -0.000227
     22 H                     0.178953      -0.005196
     23 H                     0.187048      -0.007567
     24 H                     0.178832      -0.000799
     25 H                     0.180952      -0.001032
     26 H                     0.147981       0.000470
     27 H                     0.132724       0.000519
     28 H                     0.148113       0.000376
     29 H                     0.132435       0.000398
     30 H                     0.184022      -0.000817
  --------------------------------------------------------
  Sum of atomic charges =    -1.000000

                    Cartesian Multipole Moments
 -----------------------------------------------------------------
    Charge (ESU x 10^10)
                -4.8032
    Dipole Moment (Debye)
         X       0.5681      Y      -5.5434      Z      -0.1695
       Tot       5.5750
    Quadrupole Moments (Debye-Ang)
        XX     -89.0620     XY       9.0601     YY    -135.8873
        XZ       1.0677     YZ      -3.2345     ZZ     -92.2340

 Total job time:  65.72s(wall), 493.01s(cpu)
        *  Thank you very much for using Q-Chem.  Have a nice day.  *
