 Gaussian 16, Revision A.03,
 Gaussian 16:  ES64L-G16RevA.03 25-Dec-2016

 ----------------------------------------------------------------
 #P UB3LYP/6-311++G(d,p) SCRF=(PCM,Solvent=n,n-DiMethylFormamide)
 ----------------------------------------------------------------

 ------------------
 Quinone PCM in DMF
 ------------------
 Symbolic Z-matrix:
 Charge =  0 Multiplicity = 1

                         Standard orientation:
 ---------------------------------------------------------------------
 Center     Atomic      Atomic             Coordinates (Angstroms)
 Number     Number       Type             X           Y           Z
 ---------------------------------------------------------------------
      1          6           0       -3.766221   -1.681148    0.000120
      2          6           0       -5.059141   -1.171136    0.000339
      3          6           0       -5.267748    0.210835    0.000386
      4          6           0       -2.668814   -0.814705   -0.000041
      5          6           0       -2.878626    0.576566    0.000003
      6          6           0       -4.183114    1.079953    0.000211
      7          6           0       -1.292563   -1.391447   -0.000277
      8          6           0       -0.151227   -0.431046   -0.000184
      9          6           0       -0.358838    0.957065   -0.000121
     10          6           0       -1.733912    1.534267   -0.000172
     11          6           0        1.152475   -0.930168   -0.000206
     12          6           0        2.225416   -0.051282   -0.000145
     13          6           0        2.054311    1.345286   -0.000143
     14          6           0        0.740389    1.817075   -0.000119
     15          8           0       -1.106969   -2.597034   -0.000520
     16          8           0       -1.915250    2.741090   -0.000304
     17         35           0        3.992009   -0.799672    0.000181
     18          6           0        3.211446    2.305913    0.000093
     19          1           0       -3.581393   -2.748229    0.000062
     20          1           0       -5.906551   -1.847208    0.000476
     21          1           0       -6.277012    0.606549    0.000554
     22          1           0       -4.321839    2.153997    0.000240
     23          1           0        1.302610   -2.001618   -0.000283
     24          1           0        0.551228    2.884121   -0.000170
     25          1           0        3.848428    2.155755   -0.875991
     26          1           0        3.844068    2.160222    0.880171
     27          1           0        2.854914    3.336318   -0.003271
 ---------------------------------------------------------------------

 SCF Done:  E(UB3LYP) =  -3301.83261289     A.U. after   15 cycles

 The electronic state is 1-A.
 Alpha  occ. eigenvalues -- -482.84491 -62.49774 -56.31807 -56.31431 -56.31403
 Alpha  occ. eigenvalues --  -19.13525 -19.13479 -10.28753 -10.28692 -10.25547
 Alpha  occ. eigenvalues --  -10.22255 -10.21510 -10.21354 -10.21200 -10.21149
 Alpha  occ. eigenvalues --  -10.20966 -10.20359 -10.20111 -10.20067 -10.20011
 Alpha  occ. eigenvalues --  -10.20000 -10.17992  -8.70745  -6.53875  -6.52623
 Alpha  occ. eigenvalues --   -6.52548  -2.64971  -2.64623  -2.64568  -2.63572
 Alpha  occ. eigenvalues --   -2.63571  -1.07078  -1.06885  -0.90839  -0.89047
 Alpha  occ. eigenvalues --   -0.84108  -0.81013  -0.79230  -0.78146  -0.76124
 Alpha  occ. eigenvalues --   -0.72358  -0.68611  -0.66128  -0.63547  -0.62534
 Alpha  occ. eigenvalues --   -0.59154  -0.55756  -0.55358  -0.51345  -0.50033
 Alpha  occ. eigenvalues --   -0.48291  -0.47681  -0.46265  -0.46181  -0.46015
 Alpha  occ. eigenvalues --   -0.45357  -0.45174  -0.43900  -0.43791  -0.42363
 Alpha  occ. eigenvalues --   -0.40503  -0.39521  -0.39378  -0.38266  -0.37682
 Alpha  occ. eigenvalues --   -0.37503  -0.36992  -0.33295  -0.30726  -0.29251
 Alpha  occ. eigenvalues --   -0.28896  -0.28230  -0.27930  -0.27914  -0.26705
 Alpha virt. eigenvalues --   -0.12214  -0.07905  -0.04168  -0.03225  -0.02550
 Alpha virt. eigenvalues --   -0.00823   0.00016   0.00938   0.01686   0.02103
 Alpha virt. eigenvalues --    0.02498   0.02860   0.03400   0.03679   0.03751

  Beta  occ. eigenvalues -- -482.84491 -62.49774 -56.31807 -56.31431 -56.31403
  Beta  occ. eigenvalues --  -19.13525 -19.13479 -10.28753 -10.28692 -10.25547
  Beta  occ. eigenvalues --  -10.22255 -10.21510 -10.21354 -10.21200 -10.21149
  Beta  occ. eigenvalues --  -10.20966 -10.20359 -10.20111 -10.20067 -10.20011
  Beta  occ. eigenvalues --  -10.20000 -10.17992  -8.70745  -6.53875  -6.52623
  Beta  occ. eigenvalues --   -6.52548  -2.64971  -2.64623  -2.64568  -2.63572
  Beta  occ. eigenvalues --   -2.63571  -1.07078  -1.06885  -0.90839  -0.89047
  Beta  occ. eigenvalues --   -0.84108  -0.81013  -0.79230  -0.78146  -0.76124
  Beta  occ. eigenvalues --   -0.72358  -0.68611  -0.66128  -0.63547  -0.62534
  Beta  occ. eigenvalues --   -0.59154  -0.55756  -0.55358  -0.51345  -0.50033
  Beta  occ. eigenvalues --   -0.48291  -0.47681  -0.46265  -0.46181  -0.46015
  Beta  occ. eigenvalues --   -0.45357  -0.45174  -0.43900  -0.43791  -0.42363
  Beta  occ. eigenvalues --   -0.40503  -0.39521  -0.39378  -0.38266  -0.37682
  Beta  occ. eigenvalues --   -0.37503  -0.36992  -0.33295  -0.30726  -0.29251
  Beta  occ. eigenvalues --   -0.28896  -0.28230  -0.27930  -0.27914  -0.26705
  Beta virt. eigenvalues --   -0.12214  -0.07905  -0.04168  -0.03225  -0.02550
  Beta virt. eigenvalues --   -0.00823   0.00016   0.00938   0.01686   0.02103
  Beta virt. eigenvalues --    0.02498   0.02860   0.03400   0.03679   0.03751

 Mulliken charges and spin densities:
               1          2
     1  C    0.222034  -0.000000
     2  C   -0.478204   0.000000
     3  C   -0.450067   0.000000
     4  C    0.067416   0.000000
     5  C    0.298496  -0.000000
     6  C    0.116982  -0.000000
     7  C   -0.864905   0.000000
     8  C    0.271129  -0.000000
     9  C    0.273349   0.000000
    10  C   -0.618758  -0.000000
    11  C    0.017648   0.000000
    12  C   -0.289761   0.000000
    13  C    0.603372  -0.000000
    14  C   -0.023790   0.000000
    15  O   -0.262688  -0.000000
    16  O   -0.264571  -0.000000
    17  Br  -0.175673   0.000000
    18  C   -0.183961  -0.000000
    19  H    0.187973  -0.000000
    20  H    0.209434  -0.000000
    21  H    0.211305   0.000000
    22  H    0.184308   0.000000
    23  H    0.239707   0.000000
    24  H    0.151158  -0.000000
    25  H    0.186196  -0.000000
    26  H    0.187009  -0.000000
    27  H    0.184862   0.000000
 Sum of Mulliken charges =  -0.00000  -0.00000

 Dipole moment (field-independent basis, Debye):
    X=             -1.3002    Y=              1.2400    Z=              0.0020  Tot=              1.7967
 Quadrupole moment (field-independent basis, Debye-Ang):
   XX=            -89.0244   YY=           -125.9148   ZZ=           -118.1783
   XY=             10.7003   XZ=             -0.0023   YZ=              0.0004

 Normal termination of Gaussian 16 at Sun Jan 14 01:02:45 2024.
