 Q-Chem 5.4, Q-Chem, Inc., Pleasanton, CA (2021)
 Q-Chem 5.4.0 for Intel X86 EM64T Linux

User input:
--------------------------------------------------------------
$molecule
0 1
C                 -0.6497340000      2.8884150000      0.4173750000
C                 -1.6499950000      2.5011570000     -0.4684210000
C                 -1.4200840000      1.4589580000     -1.3685570000
C                  0.5846600000      2.2339640000      0.3985990000
C                  0.8188070000      1.1857760000     -0.5066890000
C                 -0.1930020000      0.7991340000     -1.3841850000
C                  1.6516490000      2.6388410000      1.3304230000
C                  2.9554110000      1.9249450000      1.2699660000
C                  3.2115130000      0.9305470000      0.3729210000
C                  2.1306460000      0.4511930000     -0.5350440000
O                  1.5381820000      3.5374620000      2.1577010000
O                  2.2774160000     -0.5191570000     -1.2526900000
O                  3.8717660000      2.3728370000      2.1302370000
H                 -0.8060280000      3.6904140000      1.1282750000
H                 -2.6075120000      3.0087990000     -0.4585090000
H                 -2.1999820000      1.1596210000     -2.0594540000
H                 -0.0002970000     -0.0151440000     -2.0714640000
H                  3.4332140000      3.0806940000      2.6415580000
N                  4.4512430000      0.2792710000      0.4327200000
N                  4.9666640000      0.0022230000     -0.6754030000
C                  6.1806690000     -0.7282240000     -0.6071270000
C                  6.7946810000     -1.1455630000      0.5839630000
C                  6.7629360000     -1.0285160000     -1.8428210000
C                  7.9556030000     -1.7443510000     -1.8945970000
C                  8.5666890000     -2.1587980000     -0.7127230000
C                  7.9840080000     -1.8574050000      0.5234330000
H                  6.3305610000     -0.9017720000      1.5307760000
H                  6.2611180000     -0.6953260000     -2.7433770000
H                  8.4059670000     -1.9788420000     -2.8521350000
H                  9.4958290000     -2.7164920000     -0.7495660000
H                  8.4650040000     -2.1817300000      1.4394660000
$end
$rem
MAX_SCF_CYCLES=200
BASIS  =  6-311++G(d,p)
GUI  =  2
JOB_TYPE  =  SP
METHOD  =  B3LYP
SOLVENT_METHOD = PCM
$end
$pcm
theory = CPCM
$end
$solvent
dielectric 37.219
opticaldielectric 1.43
$end

--------------------------------------------------------------

             Standard Nuclear Orientation (Angstroms)
    I     Atom           X                Y                Z
 ----------------------------------------------------------------
    1      C      -0.6497340000     2.8884150000     0.4173750000
    2      C      -1.6499950000     2.5011570000    -0.4684210000
    3      C      -1.4200840000     1.4589580000    -1.3685570000
    4      C       0.5846600000     2.2339640000     0.3985990000
    5      C       0.8188070000     1.1857760000    -0.5066890000
    6      C      -0.1930020000     0.7991340000    -1.3841850000
    7      C       1.6516490000     2.6388410000     1.3304230000
    8      C       2.9554110000     1.9249450000     1.2699660000
    9      C       3.2115130000     0.9305470000     0.3729210000
   10      C       2.1306460000     0.4511930000    -0.5350440000
   11      O       1.5381820000     3.5374620000     2.1577010000
   12      O       2.2774160000    -0.5191570000    -1.2526900000
   13      O       3.8717660000     2.3728370000     2.1302370000
   14      H      -0.8060280000     3.6904140000     1.1282750000
   15      H      -2.6075120000     3.0087990000    -0.4585090000
   16      H      -2.1999820000     1.1596210000    -2.0594540000
   17      H      -0.0002970000    -0.0151440000    -2.0714640000
   18      H       3.4332140000     3.0806940000     2.6415580000
   19      N       4.4512430000     0.2792710000     0.4327200000
   20      N       4.9666640000     0.0022230000    -0.6754030000
   21      C       6.1806690000    -0.7282240000    -0.6071270000
   22      C       6.7946810000    -1.1455630000     0.5839630000
   23      C       6.7629360000    -1.0285160000    -1.8428210000
   24      C       7.9556030000    -1.7443510000    -1.8945970000
   25      C       8.5666890000    -2.1587980000    -0.7127230000
   26      C       7.9840080000    -1.8574050000     0.5234330000
   27      H       6.3305610000    -0.9017720000     1.5307760000
   28      H       6.2611180000    -0.6953260000    -2.7433770000
   29      H       8.4059670000    -1.9788420000    -2.8521350000
   30      H       9.4958290000    -2.7164920000    -0.7495660000
   31      H       8.4650040000    -2.1817300000     1.4394660000
 ----------------------------------------------------------------

    9    -951.1231632734      4.37e-06  Convergence criterion met
 Total energy in the final basis set =     -951.1231632734

                    Orbital Energies (a.u.)
 --------------------------------------------------------------

 Alpha MOs
 -- Occupied --
-19.1887 -19.1534 -19.1385 -14.3837 -14.3797 -10.2987 -10.2935 -10.2809
-10.2374 -10.2181 -10.2149 -10.2144 -10.2030 -10.2009 -10.2000 -10.1993
-10.1913 -10.1909 -10.1900 -10.1884 -10.1873  -1.1188  -1.0793  -1.0732
 -1.0556  -0.8975  -0.8837  -0.8516  -0.8063  -0.7834  -0.7711  -0.7638
 -0.7212  -0.6902  -0.6626  -0.6411  -0.6219  -0.6120  -0.5935  -0.5782
 -0.5574  -0.5384  -0.5210  -0.5027  -0.5018  -0.4883  -0.4751  -0.4723
 -0.4715  -0.4550  -0.4535  -0.4509  -0.4417  -0.4368  -0.4306  -0.4200
 -0.4136  -0.4091  -0.3859  -0.3810  -0.3763  -0.3741  -0.3708  -0.3592
 -0.3109  -0.3021  -0.2972  -0.2847  -0.2828  -0.2731  -0.2592  -0.2393

          Ground-State Mulliken Net Atomic Charges

     Atom                 Charge (a.u.)
  ----------------------------------------
      1 C                     0.142628
      2 C                    -0.330375
      3 C                    -0.383077
      4 C                     0.769572
      5 C                     0.266808
      6 C                     0.220911
      7 C                    -0.651605
      8 C                    -0.083945
      9 C                     0.278953
     10 C                    -0.728877
     11 O                    -0.309993
     12 O                    -0.249322
     13 O                    -0.215997
     14 H                     0.199750
     15 H                     0.235159
     16 H                     0.226642
     17 H                     0.199605
     18 H                     0.327875
     19 N                     0.054700
     20 N                     0.048136
     21 C                    -0.289774
     22 C                     0.059642
     23 C                    -0.082498
     24 C                    -0.134356
     25 C                    -0.364162
     26 C                    -0.290466
     27 H                     0.208499
     28 H                     0.215823
     29 H                     0.225586
     30 H                     0.205324
     31 H                     0.228817
  ----------------------------------------
  Sum of atomic charges =    -0.000018

                    Cartesian Multipole Moments
 -----------------------------------------------------------------
    Charge (ESU x 10^10)
                -0.0001
    Dipole Moment (Debye)
         X      -2.1424      Y       0.8309      Z      -0.4987
       Tot       2.3514
    Quadrupole Moments (Debye-Ang)
        XX     -91.8801     XY     -16.4264     YY    -118.0523
        XZ       1.9501     YZ      -3.1145     ZZ    -116.3462

 Total job time:  102.10s(wall), 500.29s(cpu)
        *  Thank you very much for using Q-Chem.  Have a nice day.  *
