 Q-Chem 5.4, Q-Chem, Inc., Pleasanton, CA (2021)
 Q-Chem 5.4.0 for Intel X86 EM64T Linux

User input:
--------------------------------------------------------------
$molecule
-1 2
C                  2.6592810000      1.4470510000     -0.2240090000
O                  2.4797040000      0.2175310000      0.4748630000
C                  1.2535550000     -0.4043340000      0.3066450000
C                  1.2550610000     -1.7136960000     -0.0952140000
C                  0.0368260000     -2.4839740000     -0.2249850000
O                  0.0387150000     -3.6911800000     -0.5968530000
C                 -1.1858080000     -1.7699390000      0.0748820000
C                 -1.1884470000     -0.4607440000      0.4768680000
O                 -2.4064780000      0.1051680000      0.8156120000
C                 -2.7377160000      1.3219250000      0.1506050000
C                  0.0344830000      0.3118440000      0.6646830000
O                  0.0391610000      1.4925640000      1.1255830000
H                  3.6715460000      1.7848430000      0.0110140000
H                  2.5795730000      1.2873200000     -1.3086310000
H                  1.9277720000      2.1902390000      0.0971910000
H                  2.1955620000     -2.2047280000     -0.3208660000
H                 -2.1249910000     -2.3042990000     -0.0197250000
H                 -2.8033470000      1.1606470000     -0.9347270000
H                 -3.7214520000      1.6148090000      0.5254610000
H                 -2.0030000000      2.0989540000      0.3675050000
$end
$rem
MAX_SCF_CYCLES=200
BASIS  =  6-311++G(d,p)
GUI  =  2
JOB_TYPE  =  SP
METHOD  =  B3LYP
SOLVENT_METHOD = COSMO
$end
$solvent
dielectric 37.219
opticaldielectric 1.43
$end

--------------------------------------------------------------

             Standard Nuclear Orientation (Angstroms)
    I     Atom           X                Y                Z
 ----------------------------------------------------------------
    1      C       2.7069752738    -1.6695554633     0.5742909987
    2      O       2.4502870550    -0.5889802330    -0.3194974168
    3      C       1.2243045697     0.0397330478    -0.1775773687
    4      C       1.2225316657     1.4001638136    -0.0190000713
    5      C      -0.0017451742     2.1679482851     0.0579313896
    6      O      -0.0027863034     3.4224907925     0.2054363638
    7      C      -1.2249023849     1.3981923025    -0.0192842957
    8      C      -1.2242722013     0.0378904735    -0.1779342038
    9      O      -2.4490487691    -0.5931932980    -0.3202684536
   10      C      -2.7044531125    -1.6728911857     0.5749810158
   11      C       0.0007229490    -0.7426282267    -0.3117322500
   12      O       0.0015198077    -1.9871795391    -0.5518193340
   13      H       3.7082747767    -2.0333314811     0.3312148986
   14      H       2.6987863430    -1.3168832482     1.6153613568
   15      H       1.9728408349    -2.4665182428     0.4458378392
   16      H       2.1644708246     1.9341164811     0.0459503004
   17      H      -2.1677071562     1.9306322448     0.0453892894
   18      H      -2.6985903918    -1.3184163835     1.6154505323
   19      H      -3.7045484981    -2.0394793921     0.3311431957
   20      H      -1.9682705667    -2.4683400372     0.4487920253
 ----------------------------------------------------------------

   11    -610.7503180913      7.61e-06  Convergence criterion met
 Total energy in the final basis set =     -610.7503180913
    4    -610.8395841092      8.40e-06  Convergence criterion met
 Total energy in the final basis set =     -610.8395841092

                    Orbital Energies (a.u.)
 --------------------------------------------------------------

 Alpha MOs
 -- Occupied --
-19.1421 -19.1421 -19.0865 -19.0840 -10.2305 -10.2289 -10.2265 -10.2265
-10.2044 -10.2044 -10.1610 -10.1610  -1.0587  -1.0527  -1.0052  -1.0011
 -0.8264  -0.7566  -0.7062  -0.6754  -0.6749  -0.5933  -0.5727  -0.5085
 -0.5060  -0.4771  -0.4701  -0.4642  -0.4537  -0.4440  -0.4191  -0.4190
 -0.4045  -0.3876  -0.3838  -0.3782  -0.3536  -0.3512  -0.3081  -0.2977
 -0.2719  -0.2508  -0.2475  -0.2327  -0.1691

 Beta MOs
 -- Occupied --
-19.1419 -19.1419 -19.0794 -19.0776 -10.2283 -10.2277 -10.2256 -10.2256
-10.2044 -10.2043 -10.1599 -10.1599  -1.0571  -1.0521  -0.9939  -0.9891
 -0.8207  -0.7548  -0.7020  -0.6736  -0.6673  -0.5900  -0.5693  -0.5067
 -0.5038  -0.4763  -0.4658  -0.4595  -0.4526  -0.4427  -0.4183  -0.4120
 -0.3905  -0.3821  -0.3786  -0.3529  -0.3500  -0.3499  -0.3058  -0.2881
 -0.2477  -0.2446  -0.2411  -0.2272

          Ground-State Mulliken Net Atomic Charges

     Atom                 Charge (a.u.)    Spin (a.u.)
  --------------------------------------------------------
      1 C                    -0.325398       0.005102
      2 O                    -0.230779       0.000635
      3 C                    -0.606016       0.145192
      4 C                     0.706200       0.035854
      5 C                    -0.662592       0.153919
      6 O                    -0.546391       0.218048
      7 C                     0.706420       0.035808
      8 C                    -0.608164       0.145149
      9 O                    -0.230795       0.000614
     10 C                    -0.325301       0.005123
     11 C                     0.206782       0.003865
     12 O                    -0.517878       0.266556
     13 H                     0.161789       0.000339
     14 H                     0.148738       0.000427
     15 H                     0.180134      -0.000950
     16 H                     0.226409      -0.007749
     17 H                     0.226248      -0.007743
     18 H                     0.148770       0.000420
     19 H                     0.161833       0.000344
     20 H                     0.179990      -0.000953
  --------------------------------------------------------
  Sum of atomic charges =    -1.000000

                    Cartesian Multipole Moments
 -----------------------------------------------------------------
    Charge (ESU x 10^10)
                -4.8032
    Dipole Moment (Debye)
         X       0.0068      Y      -6.0901      Z       3.4244
       Tot       6.9869
    Quadrupole Moments (Debye-Ang)
        XX     -75.0666     XY       0.0258     YY    -111.1915
        XZ      -0.0004     YZ      -8.1189     ZZ     -75.1239

 Total job time:  39.39s(wall), 268.35s(cpu)
        *  Thank you very much for using Q-Chem.  Have a nice day.  *
