 Gaussian 16, Revision A.03,
 Gaussian 16:  ES64L-G16RevA.03 25-Dec-2016

 ----------------------------------------------------------------------
 #P UB3LYP/6-311++G(d,p) nosym opt freq SCRF=(PCM,Solvent=n,n-DiMethylF
 ormamide)
 ----------------------------------------------------------------------

 -------
 Radical
 -------
 Symbolic Z-matrix:
 Charge = -1 Multiplicity = 2

 SCF Done:  E(UB3LYP) =  -839.608874285     A.U. after   20 cycles
 SCF Done:  E(UB3LYP) =  -839.609153980     A.U. after   15 cycles
 SCF Done:  E(UB3LYP) =  -839.609188516     A.U. after   14 cycles
 SCF Done:  E(UB3LYP) =  -839.609185147     A.U. after   14 cycles
 SCF Done:  E(UB3LYP) =  -839.609188783     A.U. after   13 cycles
 SCF Done:  E(UB3LYP) =  -839.609194302     A.U. after   13 cycles
 Optimization completed.
    -- Stationary point found.
 Normal termination of Gaussian 16 at Sat Feb 10 22:45:47 2024.

 ----------------------------------------------------------------------
 #P Geom=AllCheck Guess=TCheck SCRF=Check GenChk UB3LYP/6-311++G(d,p) F
 req
 ----------------------------------------------------------------------

 Structure from the checkpoint file:  "184-rad.chk"
 -------
 Radical
 -------
 Charge = -1 Multiplicity = 2

                          Input orientation:
 ---------------------------------------------------------------------
 Center     Atomic      Atomic             Coordinates (Angstroms)
 Number     Number       Type             X           Y           Z
 ---------------------------------------------------------------------
      1          6           0        4.869005   -2.879843   -0.340629
      2          6           0        5.602314   -1.995116   -1.104605
      3          6           0        5.021145   -0.782473   -1.534287
      4          6           0        3.531717   -2.595032    0.025641
      5          6           0        2.942925   -1.369365   -0.408604
      6          6           0        3.717367   -0.483533   -1.188761
      7          6           0        2.782996   -3.537863    0.827703
      8          6           0        1.422918   -3.193693    1.173817
      9          6           0        0.818692   -1.972051    0.747307
     10          6           0        1.563505   -1.012918   -0.065216
     11          6           0        0.661506   -4.094612    1.961466
     12          6           0       -0.651146   -3.794895    2.313902
     13          6           0       -0.511668   -1.701627    1.122005
     14          6           0       -1.237815   -2.594488    1.892002
     15          8           0        3.301059   -4.650410    1.226375
     16          8           0        1.047299    0.068695   -0.453204
     17          8           0        1.177535   -5.272185    2.398478
     18          1           0        5.303987   -3.813111   -0.004507
     19          1           0        6.625883   -2.230094   -1.375742
     20          1           0        5.598892   -0.088035   -2.134364
     21          1           0        3.258366    0.443286   -1.511008
     22          1           0        2.124344   -5.276678    2.028883
     23          8           0       -1.373922   -4.674870    3.075800
     24          1           0       -0.960934   -0.773189    0.793696
     25          1           0       -2.261753   -2.383608    2.179386
     26          1           0       -0.805979   -5.435860    3.265533
 ---------------------------------------------------------------------

 SCF Done:  E(UB3LYP) =  -839.609194302     A.U. after    1 cycles

 Alpha  occ. eigenvalues --  -19.15664 -19.13747 -19.09128 -19.07840 -10.23391
 Alpha  occ. eigenvalues --  -10.23216 -10.23196 -10.22978 -10.18015 -10.17794
 Alpha  occ. eigenvalues --  -10.17628 -10.17585 -10.17510 -10.17419 -10.17415
 Alpha  occ. eigenvalues --  -10.17329 -10.17269 -10.17079  -1.07574  -1.04831
 Alpha  occ. eigenvalues --   -1.00393  -1.00174  -0.86479  -0.85102  -0.78927
 Alpha  occ. eigenvalues --   -0.75495  -0.74493  -0.74155  -0.67420  -0.64973
 Alpha  occ. eigenvalues --   -0.63040  -0.60476  -0.57148  -0.55629  -0.53670
 Alpha  occ. eigenvalues --   -0.51780  -0.49966  -0.48590  -0.46923  -0.45201
 Alpha  occ. eigenvalues --   -0.44457  -0.43812  -0.42787  -0.42137  -0.41429
 Alpha  occ. eigenvalues --   -0.41409  -0.40593  -0.39784  -0.38807  -0.37250
 Alpha  occ. eigenvalues --   -0.36773  -0.36023  -0.35529  -0.35338  -0.33901
 Alpha  occ. eigenvalues --   -0.32354  -0.27068  -0.26054  -0.26017  -0.24612
 Alpha  occ. eigenvalues --   -0.24269  -0.22303  -0.14585
 Alpha virt. eigenvalues --   -0.05354  -0.02078  -0.00420   0.00145   0.00275
 Alpha virt. eigenvalues --    0.00970   0.02000   0.02247   0.04250   0.04359
 Alpha virt. eigenvalues --    0.04436   0.04560   0.05046   0.06367   0.06445

  Beta  occ. eigenvalues --  -19.15637 -19.13703 -19.08605 -19.07356 -10.23329
  Beta  occ. eigenvalues --  -10.23145 -10.22904 -10.22841 -10.18023 -10.17752
  Beta  occ. eigenvalues --  -10.17556 -10.17517 -10.17489 -10.17356 -10.17348
  Beta  occ. eigenvalues --  -10.17292 -10.17279 -10.17057  -1.07480  -1.04680
  Beta  occ. eigenvalues --   -0.99540  -0.99290  -0.86210  -0.84987  -0.78552
  Beta  occ. eigenvalues --   -0.75226  -0.74323  -0.73958  -0.66707  -0.64819
  Beta  occ. eigenvalues --   -0.62792  -0.60354  -0.56952  -0.55534  -0.53469
  Beta  occ. eigenvalues --   -0.51663  -0.49779  -0.48368  -0.46747  -0.45106
  Beta  occ. eigenvalues --   -0.43825  -0.43660  -0.42722  -0.41830  -0.41212
  Beta  occ. eigenvalues --   -0.40340  -0.40323  -0.39693  -0.37444  -0.37142
  Beta  occ. eigenvalues --   -0.35947  -0.35865  -0.35394  -0.34435  -0.33765
  Beta  occ. eigenvalues --   -0.31398  -0.25624  -0.25332  -0.25277  -0.24192
  Beta  occ. eigenvalues --   -0.23819  -0.21389
  Beta virt. eigenvalues --   -0.08889  -0.04290  -0.01154  -0.00399   0.00283
  Beta virt. eigenvalues --    0.00561   0.00977   0.02009   0.02254   0.04261
  Beta virt. eigenvalues --    0.04387   0.04547   0.04556   0.05915   0.06450

 Mulliken charges and spin densities:
               1          2
     1  C    0.074357   0.060451
     2  C   -0.456119   0.012773
     3  C   -0.475778   0.066996
     4  C    0.184770  -0.002663
     5  C   -0.084370   0.054527
     6  C    0.064200   0.005123
     7  C   -0.377061   0.173185
     8  C    0.573922  -0.022474
     9  C    0.466745   0.032961
    10  C   -0.460119   0.074560
    11  C   -0.165825   0.064141
    12  C   -0.382765   0.046452
    13  C   -0.005721   0.035877
    14  C    0.001697   0.024713
    15  O   -0.504456   0.189688
    16  O   -0.456236   0.180346
    17  O   -0.462292   0.014252
    18  H    0.170203  -0.002377
    19  H    0.182825  -0.001643
    20  H    0.181790  -0.004924
    21  H    0.165141  -0.000109
    22  H    0.388810  -0.004347
    23  O   -0.308628   0.007703
    24  H    0.165117  -0.002529
    25  H    0.211385  -0.002444
    26  H    0.308407  -0.000239
 Sum of Mulliken charges =  -1.00000   1.00000

 Dipole moment (field-independent basis, Debye):
    X=             -7.3152    Y=             11.6520    Z=             -3.4351  Tot=             14.1803
 Quadrupole moment (field-independent basis, Debye-Ang):
   XX=           -126.8234   YY=           -159.6255   ZZ=           -117.4309
   XY=             23.3276   XZ=             -6.0928   YZ=             17.6402

  Exact polarizability: 403.505   1.798 320.039-108.389-104.518 227.561
 Approx polarizability: 433.690 -17.903 381.953-101.921-119.915 252.809

                      1                      2                      3
                      A                      A                      A
 Frequencies --     52.2168                92.4929               127.0042
 Red. masses --      7.5139                 5.6237                 7.4875
 Frc consts  --      0.0121                 0.0283                 0.0712
 IR Inten    --      7.5767                 1.1515                 2.4626

                      4                      5                      6
                      A                      A                      A
 Frequencies --    141.5295               185.2353               198.9082
 Red. masses --      6.7733                 6.4630                 5.7785
 Frc consts  --      0.0799                 0.1307                 0.1347
 IR Inten    --      0.0225                 0.9358                 6.1830

                      7                      8                      9
                      A                      A                      A
 Frequencies --    264.6766               284.9872               325.7746
 Red. masses --      5.5477                 6.1654                 6.0265
 Frc consts  --      0.2290                 0.2950                 0.3768
 IR Inten    --      0.0605                 9.1545                 3.2698

                     10                     11                     12
                      A                      A                      A
 Frequencies --    334.7128               339.5065               393.5335
 Red. masses --      8.0288                 6.3752                 6.1414
 Frc consts  --      0.5300                 0.4329                 0.5604
 IR Inten    --      2.9300                 2.9317                36.0301

                     13                     14                     15
                      A                      A                      A
 Frequencies --    394.5219               422.5831               426.8586
 Red. masses --      1.1740                11.7941                 4.1300
 Frc consts  --      0.1077                 1.2409                 0.4434
 IR Inten    --    179.7688                54.8006                 9.0326

                     16                     17                     18
                      A                      A                      A
 Frequencies --    444.2968               487.1514               490.0318
 Red. masses --      4.2754                 7.8896                 9.4034
 Frc consts  --      0.4972                 1.1031                 1.3304
 IR Inten    --      0.3444                25.7575                16.8403

                     19                     20                     21
                      A                      A                      A
 Frequencies --    514.2094               568.9666               574.1116
 Red. masses --      4.3272                 4.6590                 7.7084
 Frc consts  --      0.6741                 0.8886                 1.4969
 IR Inten    --      0.6153                 0.4380                46.1279

                     22                     23                     24
                      A                      A                      A
 Frequencies --    619.1215               655.2683               666.0292
 Red. masses --      6.6487                 5.1096                 6.8377
 Frc consts  --      1.5016                 1.2926                 1.7871
 IR Inten    --     21.0213                 0.3998                42.7083

                     25                     26                     27
                      A                      A                      A
 Frequencies --    692.4407               705.5248               717.8834
 Red. masses --      6.1414                 2.6207                 7.2030
 Frc consts  --      1.7349                 0.7686                 2.1871
 IR Inten    --     20.4275               107.9130                11.7571

                     28                     29                     30
                      A                      A                      A
 Frequencies --    764.0851               778.2721               785.2975
 Red. masses --      7.2399                 3.8866                 1.6531
 Frc consts  --      2.4904                 1.3870                 0.6007
 IR Inten    --     19.6192                19.4701                11.6029

                     31                     32                     33
                      A                      A                      A
 Frequencies --    823.1542               836.7260               882.6354
 Red. masses --      1.7557                 7.5244                 1.4450
 Frc consts  --      0.7009                 3.1038                 0.6633
 IR Inten    --     55.6057               114.9592                 0.5517

                     34                     35                     36
                      A                      A                      A
 Frequencies --    903.8579               906.4408               954.6923
 Red. masses --      7.1172                 1.0553                 1.2848
 Frc consts  --      3.4258                 0.5109                 0.6899
 IR Inten    --     16.0141               122.5564                 0.2037

                     37                     38                     39
                      A                      A                      A
 Frequencies --    987.8610              1000.8783              1015.8823
 Red. masses --      1.3659                 1.2899                 4.9314
 Frc consts  --      0.7854                 0.7613                 2.9985
 IR Inten    --      2.0752                 0.0466                53.5540

                     40                     41                     42
                      A                      A                      A
 Frequencies --   1039.7017              1048.1564              1112.5205
 Red. masses --      2.8072                 2.2371                 2.1689
 Frc consts  --      1.7879                 1.4481                 1.5816
 IR Inten    --    103.4496                39.6577                30.4751

                     43                     44                     45
                      A                      A                      A
 Frequencies --   1153.0756              1167.1317              1188.4539
 Red. masses --      1.3657                 1.4683                 1.7013
 Frc consts  --      1.0698                 1.1785                 1.4158
 IR Inten    --      9.5744                37.2218                43.5733

                     46                     47                     48
                      A                      A                      A
 Frequencies --   1204.2119              1220.7899              1252.5646
 Red. masses --      2.1164                 2.2522                 3.3999
 Frc consts  --      1.8083                 1.9776                 3.1428
 IR Inten    --    129.7717               443.3341                24.3863

                     49                     50                     51
                      A                      A                      A
 Frequencies --   1266.6056              1320.9274              1325.4437
 Red. masses --      3.0897                 2.9043                 3.9173
 Frc consts  --      2.9204                 2.9857                 4.0547
 IR Inten    --    177.2473               972.4913                82.1459

                     52                     53                     54
                      A                      A                      A
 Frequencies --   1355.7854              1376.4785              1400.3258
 Red. masses --      9.9756                 2.7776                 3.1443
 Frc consts  --     10.8036                 3.1006                 3.6328
 IR Inten    --      8.0324               418.8990               683.3669

                     55                     56                     57
                      A                      A                      A
 Frequencies --   1425.1865              1470.1570              1482.2254
 Red. masses --      4.1666                 3.0299                 2.3081
 Frc consts  --      4.9863                 3.8584                 2.9877
 IR Inten    --    168.4666               108.2147               153.4416

                     58                     59                     60
                      A                      A                      A
 Frequencies --   1489.6492              1519.7336              1550.0749
 Red. masses --      4.1322                 5.6446                 3.1964
 Frc consts  --      5.4026                 7.6811                 4.5249
 IR Inten    --    543.5226               847.8665                63.6836

                     61                     62                     63
                      A                      A                      A
 Frequencies --   1576.1021              1607.4371              1624.0971
 Red. masses --      4.2153                 6.5393                 5.3649
 Frc consts  --      6.1694                 9.9553                 8.3376
 IR Inten    --    118.3082                 8.0998                36.1969

                     64                     65                     66
                      A                      A                      A
 Frequencies --   1654.0443              2794.6727              3161.0466
 Red. masses --      4.4259                 1.0747                 1.0861
 Frc consts  --      7.1341                 4.9456                 6.3942
 IR Inten    --     87.2865              1043.5395                12.7649

                     67                     68                     69
                      A                      A                      A
 Frequencies --   3174.8278              3176.8195              3191.0661
 Red. masses --      1.0903                 1.0887                 1.0918
 Frc consts  --      6.4748                 6.4739                 6.5506
 IR Inten    --     19.9824                10.6811                15.4585

                     70                     71                     72
                      A                      A                      A
 Frequencies --   3194.3578              3199.4192              3752.4432
 Red. masses --      1.0945                 1.0926                 1.0654
 Frc consts  --      6.5803                 6.5898                 8.8391
 IR Inten    --     44.1404                13.5504               162.7524

 - Thermochemistry -
 -------------------
 Temperature   298.150 Kelvin.  Pressure   1.00000 Atm.
 Atom     1 has atomic number  6 and mass  12.00000

 Molecular mass:   240.04226 amu.
 Principal axes and moments of inertia in atomic units:
                           1         2         3
     Eigenvalues --  2033.581615660.209407693.78052
           X            0.75576  -0.56861   0.32481
           Y            0.40468   0.79550   0.45101
           Z           -0.51484  -0.20941   0.83132
 This molecule is an asymmetric top.
 Rotational symmetry number  1.
 Warning -- assumption of classical behavior for rotation
           may cause significant error
 Rotational temperatures (Kelvin)      0.04259     0.01530     0.01126
 Rotational constants (GHZ):           0.88747     0.31885     0.23457
 Zero-point vibrational energy     485892.6 (Joules/Mol)
                                  116.13111 (Kcal/Mol)
 Warning -- explicit consideration of  22 degrees of freedom as
           vibrations may cause significant error
 Vibrational temperatures:     75.13   133.08   182.73   203.63   266.51
          (Kelvin)            286.18   380.81   410.03   468.72   481.58
                              488.47   566.21   567.63   608.00   614.15
                              639.24   700.90   705.05   739.83   818.62
                              826.02   890.78   942.78   958.27   996.27
                             1015.09  1032.87  1099.35  1119.76  1129.87
                             1184.34  1203.86  1269.92  1300.45  1304.17
                             1373.59  1421.31  1440.04  1461.63  1495.90
                             1508.06  1600.67  1659.02  1679.24  1709.92
                             1732.59  1756.44  1802.16  1822.36  1900.52
                             1907.02  1950.67  1980.45  2014.76  2050.53
                             2115.23  2132.59  2143.27  2186.56  2230.21
                             2267.66  2312.74  2336.71  2379.80  4020.91
                             4548.04  4567.87  4570.73  4591.23  4595.97
                             4603.25  5398.93

 Zero-point correction=                           0.185067 (Hartree/Particle)
 Thermal correction to Energy=                    0.198262
 Thermal correction to Enthalpy=                  0.199206
 Thermal correction to Gibbs Free Energy=         0.144994
 Sum of electronic and zero-point Energies=           -839.424128
 Sum of electronic and thermal Energies=              -839.410933
 Sum of electronic and thermal Enthalpies=            -839.409989
 Sum of electronic and thermal Free Energies=         -839.464200

                     E (Thermal)             CV                S
                      KCal/Mol        Cal/Mol-Kelvin    Cal/Mol-Kelvin
 Total                  124.411             54.065            114.098
 Electronic               0.000              0.000              1.377
 Translational            0.889              2.981             42.328
 Rotational               0.889              2.981             32.849
 Vibrational            122.634             48.103             37.544
 Vibration     1          0.596              1.977              4.732
 Vibration     2          0.602              1.955              3.607
 Vibration     3          0.611              1.926              2.991
 Vibration     4          0.615              1.912              2.783
 Vibration     5          0.631              1.860              2.275
 Vibration     6          0.637              1.841              2.143
 Vibration     7          0.671              1.738              1.631
 Vibration     8          0.683              1.702              1.504
 Vibration     9          0.710              1.624              1.281
 Vibration    10          0.716              1.606              1.237
 Vibration    11          0.719              1.597              1.214
 Vibration    12          0.761              1.484              0.987
 Vibration    13          0.761              1.482              0.983
 Vibration    14          0.785              1.421              0.883
 Vibration    15          0.789              1.412              0.869
 Vibration    16          0.804              1.373              0.813
 Vibration    17          0.843              1.279              0.691
 Vibration    18          0.846              1.272              0.684
 Vibration    19          0.869              1.219              0.624
 Vibration    20          0.925              1.098              0.506
 Vibration    21          0.930              1.087              0.496
 Vibration    22          0.979              0.992              0.418

 Optimization completed.
    -- Stationary point found.
 Normal termination of Gaussian 16 at Sat Feb 10 23:42:25 2024.
