 Q-Chem 5.4, Q-Chem, Inc., Pleasanton, CA (2021)
 Q-Chem 5.4.0 for Intel X86 EM64T Linux

User input:
--------------------------------------------------------------
$molecule
-1 2
Cl                -2.4895900000      2.8580090000      1.6259720000
C                 -2.3934580000      1.2061530000      0.9916410000
C                 -3.6124420000      0.5730040000      0.8370820000
C                 -3.6696280000     -0.7187800000      0.2841400000
C                 -2.5101640000     -1.3335970000     -0.1302590000
C                 -1.2605110000     -0.6940680000      0.0062880000
C                 -0.0820340000     -1.4000170000     -0.4910250000
O                 -0.1618680000     -2.5638510000     -0.9607200000
C                  1.1849100000     -0.6730100000     -0.4621060000
C                  2.3059900000     -1.2920860000     -1.0530360000
C                  3.5262240000     -0.6569240000     -1.0940510000
C                  3.6561700000      0.6351490000     -0.5543150000
C                  2.5702990000      1.2484620000      0.0419230000
Cl                 2.8668700000      2.9033180000      0.6017350000
C                  1.2986660000      0.6231630000      0.1366550000
C                  0.1529750000      1.2190170000      0.8536910000
O                  0.2982380000      2.1572140000      1.6546230000
C                 -1.1665340000      0.6022110000      0.6083960000
H                 -4.5166610000      1.0884590000      1.1357910000
H                 -4.6300840000     -1.2122250000      0.1743960000
H                 -2.5121140000     -2.3194000000     -0.5786160000
H                  2.1583520000     -2.2789670000     -1.4738870000
H                  4.3861940000     -1.1345550000     -1.5526870000
H                  4.5982010000      1.1663210000     -0.6088310000
$end
$rem
MAX_SCF_CYCLES=200
BASIS  =  6-311++G(d,p)
GUI  =  2
JOB_TYPE  =  SP
METHOD  =  B3LYP
SOLVENT_METHOD = PCM
$end
$pcm
theory = CPCM
$end
$solvent
dielectric 37.219
opticaldielectric 1.43
$end

--------------------------------------------------------------

             Standard Nuclear Orientation (Angstroms)
    I     Atom           X                Y                Z
 ----------------------------------------------------------------
    1      Cl     -2.4895900000     2.8580090000     1.6259720000
    2      C      -2.3934580000     1.2061530000     0.9916410000
    3      C      -3.6124420000     0.5730040000     0.8370820000
    4      C      -3.6696280000    -0.7187800000     0.2841400000
    5      C      -2.5101640000    -1.3335970000    -0.1302590000
    6      C      -1.2605110000    -0.6940680000     0.0062880000
    7      C      -0.0820340000    -1.4000170000    -0.4910250000
    8      O      -0.1618680000    -2.5638510000    -0.9607200000
    9      C       1.1849100000    -0.6730100000    -0.4621060000
   10      C       2.3059900000    -1.2920860000    -1.0530360000
   11      C       3.5262240000    -0.6569240000    -1.0940510000
   12      C       3.6561700000     0.6351490000    -0.5543150000
   13      C       2.5702990000     1.2484620000     0.0419230000
   14      Cl      2.8668700000     2.9033180000     0.6017350000
   15      C       1.2986660000     0.6231630000     0.1366550000
   16      C       0.1529750000     1.2190170000     0.8536910000
   17      O       0.2982380000     2.1572140000     1.6546230000
   18      C      -1.1665340000     0.6022110000     0.6083960000
   19      H      -4.5166610000     1.0884590000     1.1357910000
   20      H      -4.6300840000    -1.2122250000     0.1743960000
   21      H      -2.5121140000    -2.3194000000    -0.5786160000
   22      H       2.1583520000    -2.2789670000    -1.4738870000
   23      H       4.3861940000    -1.1345550000    -1.5526870000
   24      H       4.5982010000     1.1663210000    -0.6088310000
 ----------------------------------------------------------------

    8   -1608.3246301352      9.29e-06  Convergence criterion met
 Total energy in the final basis set =    -1608.3246301352

                    Orbital Energies (a.u.)
 --------------------------------------------------------------

 Alpha MOs
 -- Occupied --
********-101.5486 -19.0830 -19.0808 -10.2420 -10.2401 -10.2401 -10.2301
-10.1928 -10.1928 -10.1830 -10.1830 -10.1824 -10.1823 -10.1797 -10.1797
-10.1744 -10.1744  -9.4636  -9.4635  -7.2280  -7.2279  -7.2188  -7.2187
 -7.2178  -7.2178  -1.0197  -1.0083  -0.8903  -0.8886  -0.8429  -0.8335
 -0.7932  -0.7516  -0.7437  -0.7375  -0.6746  -0.6452  -0.6312  -0.5842
 -0.5601  -0.5419  -0.5317  -0.4827  -0.4766  -0.4712  -0.4692  -0.4364
 -0.4352  -0.4345  -0.4272  -0.4218  -0.4139  -0.3953  -0.3925  -0.3865
 -0.3684  -0.3652  -0.3589  -0.3502  -0.3355  -0.3281  -0.3230  -0.3099
 -0.2759  -0.2592  -0.2536  -0.2535  -0.2504  -0.2354  -0.1464

 Beta MOs
 -- Occupied --
********-101.5486 -19.0779 -19.0754 -10.2406 -10.2402 -10.2402 -10.2280
-10.1919 -10.1919 -10.1823 -10.1823 -10.1817 -10.1817 -10.1793 -10.1793
-10.1743 -10.1742  -9.4636  -9.4635  -7.2280  -7.2279  -7.2187  -7.2186
 -7.2178  -7.2178  -1.0108  -0.9987  -0.8887  -0.8878  -0.8411  -0.8327
 -0.7895  -0.7496  -0.7407  -0.7363  -0.6677  -0.6432  -0.6286  -0.5834
 -0.5578  -0.5390  -0.5304  -0.4804  -0.4751  -0.4696  -0.4684  -0.4348
 -0.4341  -0.4259  -0.4255  -0.4167  -0.4106  -0.3929  -0.3864  -0.3719
 -0.3648  -0.3586  -0.3576  -0.3469  -0.3337  -0.3224  -0.3209  -0.3091
 -0.2570  -0.2538  -0.2498  -0.2457  -0.2447  -0.2311

          Ground-State Mulliken Net Atomic Charges

     Atom                 Charge (a.u.)    Spin (a.u.)
  --------------------------------------------------------
      1 Cl                    0.391684      -0.000850
      2 C                     0.657833       0.006411
      3 C                    -0.319949       0.045406
      4 C                    -0.788163       0.031913
      5 C                     0.306506       0.038417
      6 C                     0.293306       0.019224
      7 C                    -0.822220       0.108278
      8 O                    -0.457880       0.205242
      9 C                     0.295073       0.019351
     10 C                     0.309085       0.038541
     11 C                    -0.789326       0.031895
     12 C                    -0.320449       0.045490
     13 C                     0.660802       0.006315
     14 Cl                    0.391105      -0.000865
     15 C                     0.418377       0.083774
     16 C                    -2.594226       0.066404
     17 O                    -0.284858       0.189491
     18 C                     0.430054       0.082929
     19 H                     0.219738      -0.003929
     20 H                     0.204249      -0.002642
     21 H                     0.187525      -0.002109
     22 H                     0.187611      -0.002114
     23 H                     0.204257      -0.002642
     24 H                     0.219867      -0.003929
  --------------------------------------------------------
  Sum of atomic charges =    -1.000000

                    Cartesian Multipole Moments
 -----------------------------------------------------------------
    Charge (ESU x 10^10)
                -4.8032
    Dipole Moment (Debye)
         X      -0.5737      Y      -2.9009      Z      -3.1219
       Tot       4.3001
    Quadrupole Moments (Debye-Ang)
        XX    -112.6843     XY      -2.6583     YY    -154.5447
        XZ      -3.6962     YZ     -15.8538     ZZ    -131.9952

 Total job time:  136.59s(wall), 387.80s(cpu)
        *  Thank you very much for using Q-Chem.  Have a nice day.  *
