 Gaussian 16, Revision A.03,
 Gaussian 16:  ES64L-G16RevA.03 25-Dec-2016

 --------------------------------------
 #P UB3LYP/6-311++G(d,p) nosym opt freq
 --------------------------------------

 -------
 Radical
 -------
 Symbolic Z-matrix:
 Charge = -1 Multiplicity = 2

 SCF Done:  E(UB3LYP) =  -1608.24802004     A.U. after   24 cycles
 SCF Done:  E(UB3LYP) =  -1608.24802045     A.U. after   11 cycles
 SCF Done:  E(UB3LYP) =  -1608.24802108     A.U. after   12 cycles
 SCF Done:  E(UB3LYP) =  -1608.24802184     A.U. after   12 cycles
 SCF Done:  E(UB3LYP) =  -1608.24802383     A.U. after   13 cycles
 SCF Done:  E(UB3LYP) =  -1608.24807923     A.U. after   20 cycles
 SCF Done:  E(UB3LYP) =  -1608.24803817     A.U. after   14 cycles
 SCF Done:  E(UB3LYP) =  -1608.24813400     A.U. after   18 cycles
 SCF Done:  E(UB3LYP) =  -1608.21793669     A.U. after   23 cycles
 SCF Done:  E(UB3LYP) =  -1608.24721927     A.U. after   22 cycles
 SCF Done:  E(UB3LYP) =  -1608.24834517     A.U. after   18 cycles
 SCF Done:  E(UB3LYP) =  -1608.24829924     A.U. after   21 cycles
 SCF Done:  E(UB3LYP) =  -1608.24843822     A.U. after   17 cycles
 SCF Done:  E(UB3LYP) =  -1608.24828318     A.U. after   18 cycles
 SCF Done:  E(UB3LYP) =  -1608.24840517     A.U. after   18 cycles
 SCF Done:  E(UB3LYP) =  -1608.24845635     A.U. after   17 cycles
 SCF Done:  E(UB3LYP) =  -1608.24846998     A.U. after   16 cycles
 SCF Done:  E(UB3LYP) =  -1608.24847238     A.U. after   15 cycles
 Optimization completed.
    -- Stationary point found.
 Normal termination of Gaussian 16 at Fri Jan 12 22:18:37 2024.

 ----------------------------------------------------------------------
 #P Geom=AllCheck Guess=TCheck SCRF=Check GenChk UB3LYP/6-311++G(d,p) F
 req
 ----------------------------------------------------------------------

 Structure from the checkpoint file:  "122-rad.chk"
 -------
 Radical
 -------
 Charge = -1 Multiplicity = 2

                          Input orientation:
 ---------------------------------------------------------------------
 Center     Atomic      Atomic             Coordinates (Angstroms)
 Number     Number       Type             X           Y           Z
 ---------------------------------------------------------------------
      1         17           0       -2.489590    2.858009    1.625972
      2          6           0       -2.393458    1.206153    0.991641
      3          6           0       -3.612442    0.573004    0.837082
      4          6           0       -3.669628   -0.718780    0.284140
      5          6           0       -2.510164   -1.333597   -0.130259
      6          6           0       -1.260511   -0.694068    0.006288
      7          6           0       -0.082034   -1.400017   -0.491025
      8          8           0       -0.161868   -2.563851   -0.960720
      9          6           0        1.184910   -0.673010   -0.462106
     10          6           0        2.305990   -1.292086   -1.053036
     11          6           0        3.526224   -0.656924   -1.094051
     12          6           0        3.656170    0.635149   -0.554315
     13          6           0        2.570299    1.248462    0.041923
     14         17           0        2.866870    2.903318    0.601735
     15          6           0        1.298666    0.623163    0.136655
     16          6           0        0.152975    1.219017    0.853691
     17          8           0        0.298238    2.157214    1.654623
     18          6           0       -1.166534    0.602211    0.608396
     19          1           0       -4.516661    1.088459    1.135791
     20          1           0       -4.630084   -1.212225    0.174396
     21          1           0       -2.512114   -2.319400   -0.578616
     22          1           0        2.158352   -2.278967   -1.473887
     23          1           0        4.386194   -1.134555   -1.552687
     24          1           0        4.598201    1.166321   -0.608831
 ---------------------------------------------------------------------

 SCF Done:  E(UB3LYP) =  -1608.24847238     A.U. after    1 cycles

 Alpha  occ. eigenvalues -- -101.43159-101.43158 -18.95758 -18.95534 -10.12604
 Alpha  occ. eigenvalues --  -10.12604 -10.11750 -10.10574 -10.07505 -10.07504
 Alpha  occ. eigenvalues --  -10.07262 -10.07262 -10.07180 -10.07180 -10.06563
 Alpha  occ. eigenvalues --  -10.06563 -10.06176 -10.06176  -9.34631  -9.34629
 Alpha  occ. eigenvalues --   -7.11089  -7.11088  -7.10145  -7.10144  -7.10047
 Alpha  occ. eigenvalues --   -7.10046  -0.89276  -0.88207  -0.77430  -0.77312
 Alpha  occ. eigenvalues --   -0.72574  -0.71841  -0.67920  -0.63847  -0.62743
 Alpha  occ. eigenvalues --   -0.62270  -0.55788  -0.53191  -0.51768  -0.47176
 Alpha  occ. eigenvalues --   -0.44468  -0.42743  -0.41756  -0.36835  -0.36446
 Alpha  occ. eigenvalues --   -0.35962  -0.35666  -0.31990  -0.31966  -0.31476
 Alpha  occ. eigenvalues --   -0.31288  -0.29693  -0.29333  -0.27993  -0.27757
 Alpha  occ. eigenvalues --   -0.26574  -0.25352  -0.24886  -0.24628  -0.23260
 Alpha  occ. eigenvalues --   -0.21897  -0.21046  -0.20339  -0.19172  -0.15662
 Alpha  occ. eigenvalues --   -0.14520  -0.13735  -0.13629  -0.12463  -0.11009
 Alpha  occ. eigenvalues --   -0.02484
 Alpha virt. eigenvalues --    0.05359   0.07985   0.08047   0.08099   0.09873
 Alpha virt. eigenvalues --    0.10087   0.10345   0.11124   0.12113   0.12292
 Alpha virt. eigenvalues --    0.13684   0.14360   0.14514   0.15152   0.15601

  Beta  occ. eigenvalues -- -101.43159-101.43158 -18.95176 -18.94911 -10.12632
  Beta  occ. eigenvalues --  -10.12632 -10.11674 -10.10422 -10.07392 -10.07391
  Beta  occ. eigenvalues --  -10.07193 -10.07193 -10.07132 -10.07132 -10.06474
  Beta  occ. eigenvalues --  -10.06473 -10.06175 -10.06174  -9.34630  -9.34629
  Beta  occ. eigenvalues --   -7.11089  -7.11088  -7.10144  -7.10143  -7.10048
  Beta  occ. eigenvalues --   -7.10047  -0.88301  -0.87131  -0.77270  -0.77245
  Beta  occ. eigenvalues --   -0.72404  -0.71772  -0.67538  -0.63628  -0.62476
  Beta  occ. eigenvalues --   -0.62155  -0.55105  -0.53021  -0.51504  -0.47096
  Beta  occ. eigenvalues --   -0.44260  -0.42487  -0.41652  -0.36750  -0.36153
  Beta  occ. eigenvalues --   -0.35797  -0.35593  -0.31946  -0.31934  -0.31149
  Beta  occ. eigenvalues --   -0.30540  -0.29292  -0.28963  -0.27765  -0.27418
  Beta  occ. eigenvalues --   -0.25306  -0.24880  -0.24488  -0.23877  -0.22699
  Beta  occ. eigenvalues --   -0.21740  -0.20291  -0.20276  -0.19093  -0.13887
  Beta  occ. eigenvalues --   -0.13488  -0.13436  -0.12667  -0.11893  -0.10498
  Beta virt. eigenvalues --    0.03430   0.06208   0.07980   0.08074   0.09221
  Beta virt. eigenvalues --    0.10050   0.10087   0.10348   0.11125   0.12107
  Beta virt. eigenvalues --    0.12296   0.13671   0.14396   0.14602   0.15632

 Mulliken charges and spin densities:
               1          2
     1  Cl   0.406926  -0.002506
     2  C    0.719079  -0.004097
     3  C   -0.365501   0.053502
     4  C   -0.707295   0.033848
     5  C    0.320921   0.028187
     6  C    0.375995   0.030013
     7  C   -1.080487   0.070149
     8  O   -0.350204   0.234023
     9  C    0.376044   0.030016
    10  C    0.321985   0.028208
    11  C   -0.707688   0.033812
    12  C   -0.365192   0.053469
    13  C    0.719703  -0.004115
    14  Cl   0.406944  -0.002504
    15  C    0.448199   0.104354
    16  C   -2.715909   0.016116
    17  O   -0.157770   0.211781
    18  C    0.449501   0.104408
    19  H    0.151202  -0.004642
    20  H    0.127786  -0.002861
    21  H    0.173374  -0.001830
    22  H    0.173399  -0.001831
    23  H    0.127772  -0.002859
    24  H    0.151217  -0.004640
 Sum of Mulliken charges =  -1.00000   1.00000

 Dipole moment (field-independent basis, Debye):
    X=             -0.4158    Y=             -2.5211    Z=             -2.2870  Tot=              3.4292
 Quadrupole moment (field-independent basis, Debye-Ang):
   XX=           -131.2308   YY=           -151.9580   ZZ=           -131.4617
   XY=             -2.4696   XZ=              0.0791   YZ=            -13.8449

  Exact polarizability: 335.671  12.006 235.347 -39.409  57.892 140.049
 Approx polarizability: 504.401  24.035 429.129 -53.402 121.691 241.361

                      1                      2                      3
                      A                      A                      A
 Frequencies --     41.1415                41.9659                72.5132
 Red. masses --     10.2442                10.2664                 9.6342
 Frc consts  --      0.0102                 0.0107                 0.0298
 IR Inten    --      0.0007                 4.7427                 1.6680

                      4                      5                      6
                      A                      A                      A
 Frequencies --    151.8119               163.7242               190.4203
 Red. masses --     14.7231                 8.9947                 4.4864
 Frc consts  --      0.1999                 0.1421                 0.0958
 IR Inten    --      1.5674                 2.6102                 0.0149

                      7                      8                      9
                      A                      A                      A
 Frequencies --    209.7623               218.4767               262.2511
 Red. masses --      5.1550                14.3784                 6.8681
 Frc consts  --      0.1336                 0.4044                 0.2783
 IR Inten    --      1.3779                 0.0087                 0.1709

                     10                     11                     12
                      A                      A                      A
 Frequencies --    304.9536               326.5477               379.6282
 Red. masses --      7.7483                14.5503                 9.5108
 Frc consts  --      0.4245                 0.9141                 0.8076
 IR Inten    --      0.3931                 0.1397                 2.0568

                     13                     14                     15
                      A                      A                      A
 Frequencies --    381.1109               391.9420               397.6030
 Red. masses --      7.2277                11.4227                 6.6619
 Frc consts  --      0.6185                 1.0339                 0.6205
 IR Inten    --      3.8132                 2.2446                 0.1276

                     16                     17                     18
                      A                      A                      A
 Frequencies --    429.8450               481.4921               489.5330
 Red. masses --      8.4131                 8.8023                 6.0896
 Frc consts  --      0.9159                 1.2023                 0.8598
 IR Inten    --      7.2824                 3.9123                 3.1903

                     19                     20                     21
                      A                      A                      A
 Frequencies --    498.9877               511.1519               553.2741
 Red. masses --      4.2152                 8.8082                 5.3721
 Frc consts  --      0.6184                 1.3559                 0.9689
 IR Inten    --      0.0351                 1.3508                 1.6194

                     22                     23                     24
                      A                      A                      A
 Frequencies --    612.5394               644.1340               684.3155
 Red. masses --      5.5183                 5.1435                 7.0629
 Frc consts  --      1.2199                 1.2574                 1.9487
 IR Inten    --     15.0077                12.2096                12.5537

                     25                     26                     27
                      A                      A                      A
 Frequencies --    715.2169               722.3181               731.1536
 Red. masses --      4.4071                 2.9571                 4.9750
 Frc consts  --      1.3282                 0.9090                 1.5670
 IR Inten    --      8.1094                51.2037                14.0902

                     28                     29                     30
                      A                      A                      A
 Frequencies --    762.2419               778.0797               783.1338
 Red. masses --      6.4676                 1.9080                 1.5678
 Frc consts  --      2.2140                 0.6806                 0.5665
 IR Inten    --     43.8885                46.2779                 1.2238

                     31                     32                     33
                      A                      A                      A
 Frequencies --    822.7698               850.4961               890.4972
 Red. masses --      5.3197                 8.9239                 1.3609
 Frc consts  --      2.1218                 3.8032                 0.6358
 IR Inten    --     10.5173                72.8603                 0.7351

                     34                     35                     36
                      A                      A                      A
 Frequencies --    891.5997               926.0977               974.6011
 Red. masses --      1.4016                 6.8452                 7.4469
 Frc consts  --      0.6565                 3.4590                 4.1675
 IR Inten    --      0.1829                 4.0336                 0.0736

                     37                     38                     39
                      A                      A                      A
 Frequencies --    983.4047               986.2868              1079.7889
 Red. masses --      1.3046                 1.3176                 2.3908
 Frc consts  --      0.7433                 0.7552                 1.6424
 IR Inten    --      0.0224                 2.5222                 1.8153

                     40                     41                     42
                      A                      A                      A
 Frequencies --   1086.5232              1124.5389              1128.1895
 Red. masses --      1.9399                 2.1654                 3.4438
 Frc consts  --      1.3493                 1.6134                 2.5825
 IR Inten    --     71.1136                 1.7277                20.7095

                     43                     44                     45
                      A                      A                      A
 Frequencies --   1152.6707              1174.6874              1190.8281
 Red. masses --      2.3967                 1.8301                 1.8039
 Frc consts  --      1.8762                 1.4879                 1.5072
 IR Inten    --     72.1307                 8.4392                 1.2720

                     46                     47                     48
                      A                      A                      A
 Frequencies --   1217.3980              1228.8824              1312.9069
 Red. masses --      2.0326                 2.3321                 3.4089
 Frc consts  --      1.7749                 2.0750                 3.4621
 IR Inten    --     10.1119                51.0913                 7.1436

                     49                     50                     51
                      A                      A                      A
 Frequencies --   1335.8207              1345.6498              1389.1906
 Red. masses --     10.1635                 5.0421                 3.6300
 Frc consts  --     10.6854                 5.3793                 4.1274
 IR Inten    --     12.1286                49.2177               235.2833

                     52                     53                     54
                      A                      A                      A
 Frequencies --   1409.4274              1455.0620              1465.5551
 Red. masses --      2.9579                 2.5625                 3.2930
 Frc consts  --      3.4620                 3.1965                 4.1672
 IR Inten    --     39.2443                11.9819                72.8604

                     55                     56                     57
                      A                      A                      A
 Frequencies --   1516.2666              1546.1189              1552.7935
 Red. masses --      5.9554                 5.3204                 6.2273
 Frc consts  --      8.0671                 7.4934                 8.8467
 IR Inten    --    550.0083               122.3971               144.4149

                     58                     59                     60
                      A                      A                      A
 Frequencies --   1606.2721              1609.2238              1626.4951
 Red. masses --      5.5839                 8.6619                 8.0942
 Frc consts  --      8.4885                13.2159                12.6162
 IR Inten    --     13.9209                10.6618                62.5844

                     61                     62                     63
                      A                      A                      A
 Frequencies --   3151.4411              3151.6201              3186.7851
 Red. masses --      1.0869                 1.0872                 1.0916
 Frc consts  --      6.3602                 6.3623                 6.5315
 IR Inten    --     27.4383                28.8040                13.8953

                     64                     65                     66
                      A                      A                      A
 Frequencies --   3186.8077              3194.4825              3195.0824
 Red. masses --      1.0915                 1.0929                 1.0931
 Frc consts  --      6.5313                 6.5709                 6.5745
 IR Inten    --      5.4560                29.6495                 3.9850

 - Thermochemistry -
 -------------------
 Temperature   298.150 Kelvin.  Pressure   1.00000 Atm.
 Atom     1 has atomic number 17 and mass  34.96885

 Molecular mass:   275.97448 amu.
 Principal axes and moments of inertia in atomic units:
                           1         2         3
     Eigenvalues --  3487.981865896.959319308.32523
           X            0.98214   0.06723   0.17573
           Y            0.00839   0.91740  -0.39788
           Z           -0.18797   0.39225   0.90045
 This molecule is an asymmetric top.
 Rotational symmetry number  1.
 Warning -- assumption of classical behavior for rotation
           may cause significant error
 Rotational temperatures (Kelvin)      0.02483     0.01469     0.00930
 Rotational constants (GHZ):           0.51742     0.30605     0.19388
 Zero-point vibrational energy     411979.1 (Joules/Mol)
                                   98.46537 (Kcal/Mol)
 Warning -- explicit consideration of  22 degrees of freedom as
           vibrations may cause significant error
 Vibrational temperatures:     59.19    60.38   104.33   218.42   235.56
          (Kelvin)            273.97   301.80   314.34   377.32   438.76
                              469.83   546.20   548.33   563.92   572.06
                              618.45   692.76   704.33   717.93   735.43
                              796.04   881.31   926.77   984.58  1029.04
                             1039.25  1051.97  1096.70  1119.48  1126.75
                             1183.78  1223.67  1281.23  1282.81  1332.45
                             1402.23  1414.90  1419.05  1553.58  1563.26
                             1617.96  1623.21  1658.44  1690.11  1713.34
                             1751.56  1768.09  1888.98  1921.95  1936.09
                             1998.74  2027.85  2093.51  2108.61  2181.57
                             2224.52  2234.12  2311.07  2315.31  2340.16
                             4534.22  4534.48  4585.07  4585.11  4596.15
                             4597.01

 Zero-point correction=                           0.156915 (Hartree/Particle)
 Thermal correction to Energy=                    0.170752
 Thermal correction to Enthalpy=                  0.171696
 Thermal correction to Gibbs Free Energy=         0.114489
 Sum of electronic and zero-point Energies=          -1608.091558
 Sum of electronic and thermal Energies=             -1608.077720
 Sum of electronic and thermal Enthalpies=           -1608.076776
 Sum of electronic and thermal Free Energies=        -1608.133983

                     E (Thermal)             CV                S
                      KCal/Mol        Cal/Mol-Kelvin    Cal/Mol-Kelvin
 Total                  107.148             54.167            120.403
 Electronic               0.000              0.000              1.377
 Translational            0.889              2.981             42.744
 Rotational               0.889              2.981             33.615
 Vibrational            105.371             48.206             42.667
 Vibration     1          0.594              1.981              5.203
 Vibration     2          0.595              1.980              5.164
 Vibration     3          0.599              1.967              4.084
 Vibration     4          0.619              1.901              2.649
 Vibration     5          0.623              1.887              2.506
 Vibration     6          0.634              1.853              2.224
 Vibration     7          0.642              1.826              2.046
 Vibration     8          0.646              1.813              1.972
 Vibration     9          0.670              1.742              1.647
 Vibration    10          0.696              1.664              1.390
 Vibration    11          0.710              1.622              1.277
 Vibration    12          0.750              1.514              1.041
 Vibration    13          0.751              1.510              1.035
 Vibration    14          0.759              1.487              0.993
 Vibration    15          0.764              1.475              0.972
 Vibration    16          0.791              1.405              0.859
 Vibration    17          0.838              1.291              0.706
 Vibration    18          0.845              1.273              0.685
 Vibration    19          0.854              1.252              0.661
 Vibration    20          0.866              1.225              0.631
 Vibration    21          0.909              1.133              0.537
 Vibration    22          0.972              1.005              0.429

                           ! Non-Optimized Parameters !
 Normal termination of Gaussian 16 at Fri Jan 12 23:22:28 2024.
