 Q-Chem 5.4, Q-Chem, Inc., Pleasanton, CA (2021)
 Q-Chem 5.4.0 for Intel X86 EM64T Linux

User input:
--------------------------------------------------------------
$molecule
-1 2
C                 -1.2647740000      2.8505540000      0.2442110000
C                 -2.5930790000      2.4457440000      0.1703220000
C                 -2.9206720000      1.1060960000     -0.0594860000
C                 -0.2061580000      1.9218960000      0.0596170000
C                 -0.5611830000      0.5573030000     -0.1958270000
C                 -1.9221180000      0.1637300000     -0.2189540000
C                  1.2201140000      2.3231100000      0.1172440000
C                  2.1738860000      1.2692790000     -0.1357950000
C                  1.8251370000     -0.0235550000     -0.4274960000
C                  0.4619020000     -0.4562440000     -0.5000110000
O                  1.6042970000      3.4905970000      0.3667540000
O                  0.1357330000     -1.6325530000     -0.8250510000
O                 -0.9830330000      4.1684650000      0.4861890000
H                 -3.9613770000      0.8028370000     -0.0997820000
H                  2.5817670000     -0.7752590000     -0.6338300000
C                 -2.3464870000     -1.2624390000     -0.3915230000
O                 -2.9681690000     -1.6980150000     -1.3355300000
O                 -2.1281940000     -1.9843400000      0.7392180000
C                 -2.2927360000     -3.3970450000      0.5996770000
H                 -3.3818210000      3.1831100000      0.3037410000
H                  3.2165440000      1.5702820000     -0.0929550000
H                 -1.8247500000      4.6306790000      0.5639390000
H                 -2.0857390000     -3.8175530000      1.5837230000
H                 -1.5757190000     -3.7739480000     -0.1328180000
H                 -3.3078210000     -3.6488680000      0.2830140000
$end

$rem
BASIS  =  6-311++G(d,p)
GUI  =  2
JOB_TYPE  =  SP
METHOD  =  B3LYP
SCF_CONVERGENCE  = 8
SOLVENT_METHOD = sm12
$end

$smx
solvent dimethylformamide
charges CM5
$end

--------------------------------------------------------------

             Standard Nuclear Orientation (Angstroms)
    I     Atom           X                Y                Z
 ----------------------------------------------------------------
    1      C      -1.2647740000     2.8505540000     0.2442110000
    2      C      -2.5930790000     2.4457440000     0.1703220000
    3      C      -2.9206720000     1.1060960000    -0.0594860000
    4      C      -0.2061580000     1.9218960000     0.0596170000
    5      C      -0.5611830000     0.5573030000    -0.1958270000
    6      C      -1.9221180000     0.1637300000    -0.2189540000
    7      C       1.2201140000     2.3231100000     0.1172440000
    8      C       2.1738860000     1.2692790000    -0.1357950000
    9      C       1.8251370000    -0.0235550000    -0.4274960000
   10      C       0.4619020000    -0.4562440000    -0.5000110000
   11      O       1.6042970000     3.4905970000     0.3667540000
   12      O       0.1357330000    -1.6325530000    -0.8250510000
   13      O      -0.9830330000     4.1684650000     0.4861890000
   14      H      -3.9613770000     0.8028370000    -0.0997820000
   15      H       2.5817670000    -0.7752590000    -0.6338300000
   16      C      -2.3464870000    -1.2624390000    -0.3915230000
   17      O      -2.9681690000    -1.6980150000    -1.3355300000
   18      O      -2.1281940000    -1.9843400000     0.7392180000
   19      C      -2.2927360000    -3.3970450000     0.5996770000
   20      H      -3.3818210000     3.1831100000     0.3037410000
   21      H       3.2165440000     1.5702820000    -0.0929550000
   22      H      -1.8247500000     4.6306790000     0.5639390000
   23      H      -2.0857390000    -3.8175530000     1.5837230000
   24      H      -1.5757190000    -3.7739480000    -0.1328180000
   25      H      -3.3078210000    -3.6488680000     0.2830140000
 ----------------------------------------------------------------

   18    -838.5041606683      8.70e-09  Convergence criterion met
 Total energy in the final basis set =     -838.5965719915

                    Orbital Energies (a.u.)
 --------------------------------------------------------------

 Alpha MOs
 -- Occupied --
-19.1585 -19.1568 -19.1078 -19.0780 -19.0739 -10.3025 -10.2506 -10.2277
-10.2243 -10.2142 -10.1913 -10.1911 -10.1897 -10.1881 -10.1837 -10.1699
-10.1689  -1.1001  -1.0713  -1.0153  -1.0024  -0.9995  -0.8697  -0.8131
 -0.7734  -0.7551  -0.7181  -0.6825  -0.6447  -0.6309  -0.5938  -0.5701
 -0.5427  -0.5195  -0.5015  -0.4861  -0.4774  -0.4709  -0.4623  -0.4578
 -0.4335  -0.4290  -0.4217  -0.4074  -0.4017  -0.3980  -0.3866  -0.3770
 -0.3751  -0.3727  -0.3599  -0.3525  -0.3430  -0.2997  -0.2838  -0.2789
 -0.2653  -0.2443  -0.2402  -0.2332  -0.1553

 Beta MOs
 -- Occupied --
-19.1585 -19.1568 -19.1077 -19.0712 -19.0670 -10.3025 -10.2508 -10.2270
-10.2229 -10.2142 -10.1909 -10.1907 -10.1894 -10.1876 -10.1829 -10.1688
-10.1671  -1.1000  -1.0712  -1.0152  -0.9907  -0.9876  -0.8678  -0.8077
 -0.7720  -0.7529  -0.7173  -0.6741  -0.6430  -0.6281  -0.5918  -0.5689
 -0.5417  -0.5179  -0.4996  -0.4840  -0.4768  -0.4699  -0.4609  -0.4563
 -0.4291  -0.4269  -0.4195  -0.4065  -0.3957  -0.3861  -0.3847  -0.3747
 -0.3700  -0.3582  -0.3530  -0.3516  -0.3348  -0.2989  -0.2819  -0.2590
 -0.2490  -0.2380  -0.2338  -0.2269

          Ground-State Mulliken Net Atomic Charges

     Atom                 Charge (a.u.)    Spin (a.u.)
  --------------------------------------------------------
      1 C                     0.885819       0.024917
      2 C                     2.249145       0.063783
      3 C                     0.073875       0.008527
      4 C                    -1.664391       0.026866
      5 C                    -0.469404       0.063665
      6 C                     0.170618       0.039094
      7 C                    -1.599164       0.006148
      8 C                    -0.339791       0.148637
      9 C                    -0.296748       0.068508
     10 C                    -1.313720       0.056962
     11 O                    -0.321990       0.254434
     12 O                    -0.304471       0.251885
     13 O                    -0.135938      -0.001271
     14 H                     0.268630      -0.001329
     15 H                     0.215577      -0.008137
     16 C                     0.188973       0.012276
     17 O                    -0.199256       0.002092
     18 O                     0.021170      -0.001996
     19 C                     0.036344       0.002411
     20 H                     0.392022      -0.004428
     21 H                     0.197389      -0.012393
     22 H                     0.362285      -0.000261
     23 H                     0.247472       0.000214
     24 H                     0.144557      -0.000612
     25 H                     0.190995       0.000006
  --------------------------------------------------------
  Sum of atomic charges =    -1.000000

                    Cartesian Multipole Moments
 -----------------------------------------------------------------
    Charge (ESU x 10^10)
                -4.8032
    Dipole Moment (Debye)
         X      -2.7606      Y      -3.1198      Z       2.6887
       Tot       4.9581
    Quadrupole Moments (Debye-Ang)
        XX    -108.9681     XY     -24.2129     YY    -124.6261
        XZ      -8.7774     YZ      -9.2963     ZZ    -109.4906

 Total job time:  563.26s(wall), 4376.82s(cpu)
        *  Thank you very much for using Q-Chem.  Have a nice day.  *
