 Gaussian 16, Revision A.03,
 Gaussian 16:  ES64L-G16RevA.03 25-Dec-2016

 --------------------------------------
 #P UB3LYP/6-311++G(d,p) nosym opt freq
 --------------------------------------

 -------
 Reduced
 -------
 Symbolic Z-matrix:
 Charge = -2 Multiplicity = 1

 SCF Done:  E(UB3LYP) =  -613.886889907     A.U. after   40 cycles
 Optimization completed.
    -- Stationary point found.
 Normal termination of Gaussian 16 at Sun Jan  7 20:19:38 2024.

 ----------------------------------------------------------------------
 #P Geom=AllCheck Guess=TCheck SCRF=Check GenChk UB3LYP/6-311++G(d,p) F
 req
 ----------------------------------------------------------------------

 Structure from the checkpoint file:  "243-an.chk"
 -------
 Reduced
 -------
 Charge = -2 Multiplicity = 1

                          Input orientation:
 ---------------------------------------------------------------------
 Center     Atomic      Atomic             Coordinates (Angstroms)
 Number     Number       Type             X           Y           Z
 ---------------------------------------------------------------------
      1          6           0        3.731598   -1.039948   -0.306803
      2          6           0        2.431128   -0.295889   -0.102747
      3          6           0        2.432707    1.123181   -0.004054
      4          6           0        1.249520    1.812940    0.188048
      5          6           0        0.003100    1.156779    0.285132
      6          6           0       -1.222607    1.934512    0.469010
      7          8           0       -1.222011    3.219915    0.546256
      8          6           0       -2.399119    1.138681    0.561194
      9          6           0       -2.428510   -0.263546    0.487079
     10          6           0       -3.737608   -1.005098    0.582399
     11          6           0       -1.247948   -1.049241    0.302354
     12          8           0       -1.278703   -2.336923    0.223405
     13          6           0       -0.011937   -0.281837    0.205238
     14          6           0        1.220376   -0.956262    0.015363
     15          1           0        4.467110   -0.826665    0.488714
     16          1           0        3.575742   -2.123337   -0.321700
     17          1           0        4.220211   -0.766842   -1.249533
     18          1           0        3.374534    1.664362   -0.088762
     19          1           0        1.235451    2.896574    0.262017
     20          1           0       -3.335638    1.681069    0.700262
     21          1           0       -3.730895   -1.724680    1.413131
     22          1           0       -4.575880   -0.311364    0.722552
     23          1           0       -3.923501   -1.605742   -0.319930
     24          1           0        1.172880   -2.040638   -0.034690
 ---------------------------------------------------------------------

 SCF Done:  E(UB3LYP) =  -613.886889907     A.U. after    5 cycles

 Alpha  occ. eigenvalues --  -18.77788 -18.77778  -9.94801  -9.93565  -9.93221
 Alpha  occ. eigenvalues --   -9.93024  -9.92490  -9.92011  -9.91563  -9.91137
 Alpha  occ. eigenvalues --   -9.90138  -9.89998  -9.89884  -9.88643  -0.69257
 Alpha  occ. eigenvalues --   -0.68880  -0.59795  -0.54518  -0.51926  -0.49036
 Alpha  occ. eigenvalues --   -0.46193  -0.42886  -0.39325  -0.34435  -0.33047
 Alpha  occ. eigenvalues --   -0.28939  -0.23894  -0.23160  -0.20977  -0.19549
 Alpha  occ. eigenvalues --   -0.18566  -0.17397  -0.17205  -0.16117  -0.14830
 Alpha  occ. eigenvalues --   -0.14134  -0.12520  -0.12385  -0.11217  -0.10559
 Alpha  occ. eigenvalues --   -0.08126  -0.07333  -0.06953  -0.06633   0.00767
 Alpha  occ. eigenvalues --    0.02065   0.02586   0.04566   0.04990   0.13488
 Alpha virt. eigenvalues --    0.14991   0.17044   0.17658   0.18659   0.19684
 Alpha virt. eigenvalues --    0.19854   0.21165   0.21524   0.21914   0.22805
 Alpha virt. eigenvalues --    0.22974   0.24437   0.25714   0.26405   0.27783

  Beta  occ. eigenvalues --  -18.77788 -18.77778  -9.94801  -9.93565  -9.93221
  Beta  occ. eigenvalues --   -9.93024  -9.92490  -9.92011  -9.91563  -9.91137
  Beta  occ. eigenvalues --   -9.90138  -9.89998  -9.89884  -9.88643  -0.69257
  Beta  occ. eigenvalues --   -0.68880  -0.59795  -0.54518  -0.51926  -0.49036
  Beta  occ. eigenvalues --   -0.46193  -0.42886  -0.39325  -0.34435  -0.33047
  Beta  occ. eigenvalues --   -0.28939  -0.23894  -0.23160  -0.20977  -0.19549
  Beta  occ. eigenvalues --   -0.18566  -0.17397  -0.17205  -0.16117  -0.14830
  Beta  occ. eigenvalues --   -0.14134  -0.12520  -0.12385  -0.11217  -0.10559
  Beta  occ. eigenvalues --   -0.08126  -0.07333  -0.06953  -0.06633   0.00767
  Beta  occ. eigenvalues --    0.02065   0.02586   0.04566   0.04990   0.13488
  Beta virt. eigenvalues --    0.14991   0.17044   0.17658   0.18659   0.19684
  Beta virt. eigenvalues --    0.19854   0.21165   0.21524   0.21914   0.22805
  Beta virt. eigenvalues --    0.22974   0.24437   0.25714   0.26405   0.27783

 Mulliken charges and spin densities:
               1          2
     1  C    2.454041  -0.000000
     2  C   -1.178997   0.000000
     3  C   -0.715343   0.000000
     4  C   -0.356431   0.000000
     5  C    0.418404  -0.000000
     6  C   -1.072598   0.000000
     7  O   -0.533082  -0.000000
     8  C   -0.411067   0.000000
     9  C    1.262560  -0.000000
    10  C   -0.410632  -0.000000
    11  C   -0.956500   0.000000
    12  O   -0.502858  -0.000000
    13  C    0.253586  -0.000000
    14  C    0.125612  -0.000000
    15  H   -0.499761   0.000000
    16  H   -0.473151   0.000000
    17  H   -0.048882   0.000000
    18  H   -0.025617   0.000000
    19  H    0.113408   0.000000
    20  H    0.033252   0.000000
    21  H    0.120445   0.000000
    22  H    0.095960  -0.000000
    23  H    0.103489  -0.000000
    24  H    0.204162  -0.000000
 Sum of Mulliken charges =  -2.00000   0.00000

 Dipole moment (field-independent basis, Debye):
    X=             -0.6192    Y=             -1.2652    Z=             -3.1215  Tot=              3.4246
 Quadrupole moment (field-independent basis, Debye-Ang):
   XX=           -170.0656   YY=           -154.3117   ZZ=           -100.9611
   XY=             13.8803   XZ=              2.0325   YZ=             -5.1942

  Exact polarizability:1607.513-327.128 697.776 -76.964 154.320 380.889
 Approx polarizability:5930.958********1069.645-222.978 153.370 332.703

                      1                      2                      3
                      A                      A                      A
 Frequencies --     71.6284                82.5135               110.4836
 Red. masses --      1.4263                 1.9196                 4.2169
 Frc consts  --      0.0043                 0.0077                 0.0303
 IR Inten    --      2.9979                 0.1583                 5.0624

                      4                      5                      6
                      A                      A                      A
 Frequencies --    141.3902               165.4130               200.2527
 Red. masses --      1.3185                 3.1130                 3.8594
 Frc consts  --      0.0155                 0.0502                 0.0912
 IR Inten    --     15.0802                13.1836                 6.0834

                      7                      8                      9
                      A                      A                      A
 Frequencies --    218.3252               287.6997               293.6567
 Red. masses --      3.3515                 3.1787                 3.8704
 Frc consts  --      0.0941                 0.1550                 0.1966
 IR Inten    --      3.5055                 0.2303                 0.5065

                     10                     11                     12
                      A                      A                      A
 Frequencies --    327.8480               360.3465               365.8452
 Red. masses --      6.2358                 4.5442                 6.0266
 Frc consts  --      0.3949                 0.3477                 0.4752
 IR Inten    --     52.8256                 4.2881                 1.9780

                     13                     14                     15
                      A                      A                      A
 Frequencies --    415.7296               451.5821               460.4841
 Red. masses --      6.7011                 3.0901                 5.1180
 Frc consts  --      0.6824                 0.3713                 0.6394
 IR Inten    --    382.2671                19.3297                24.9028

                     16                     17                     18
                      A                      A                      A
 Frequencies --    495.5775               516.0937               635.9938
 Red. masses --      8.4838                 4.1518                 4.6956
 Frc consts  --      1.2276                 0.6515                 1.1190
 IR Inten    --    416.6912                 7.0249                18.4819

                     19                     20                     21
                      A                      A                      A
 Frequencies --    646.4340               670.0557               697.8779
 Red. masses --      2.4925                 6.1115                 4.1412
 Frc consts  --      0.6137                 1.6167                 1.1883
 IR Inten    --      2.8824                 7.0945                12.9246

                     22                     23                     24
                      A                      A                      A
 Frequencies --    705.6557               740.8270               770.7899
 Red. masses --      4.5979                 5.4962                 1.5807
 Frc consts  --      1.3490                 1.7773                 0.5533
 IR Inten    --      7.9969                25.6156                28.3727

                     25                     26                     27
                      A                      A                      A
 Frequencies --    806.6521               829.4988               876.1988
 Red. masses --      2.3404                 2.2792                 4.5368
 Frc consts  --      0.8973                 0.9240                 2.0521
 IR Inten    --     65.1194                19.0563                55.5299

                     28                     29                     30
                      A                      A                      A
 Frequencies --    924.6403               960.8910               962.4328
 Red. masses --      1.3718                 1.3546                 2.0384
 Frc consts  --      0.6910                 0.7369                 1.1125
 IR Inten    --     23.2728                22.6282                13.5542

                     31                     32                     33
                      A                      A                      A
 Frequencies --    993.3494              1029.0580              1035.4186
 Red. masses --      1.5146                 1.9813                 1.4672
 Frc consts  --      0.8806                 1.2362                 0.9267
 IR Inten    --    134.6023                 7.4884                 2.3055

                     34                     35                     36
                      A                      A                      A
 Frequencies --   1064.4839              1094.0238              1126.7309
 Red. masses --      1.4897                 2.5151                 2.3167
 Frc consts  --      0.9945                 1.7736                 1.7329
 IR Inten    --      8.1244               272.5334                 1.5012

                     37                     38                     39
                      A                      A                      A
 Frequencies --   1143.7671              1197.6746              1211.8423
 Red. masses --      1.9972                 2.1733                 5.4005
 Frc consts  --      1.5394                 1.8367                 4.6728
 IR Inten    --    181.9952                20.6988               209.0839

                     40                     41                     42
                      A                      A                      A
 Frequencies --   1226.2240              1282.6962              1333.6004
 Red. masses --      1.7149                 1.8571                 7.4496
 Frc consts  --      1.5193                 1.8003                 7.8062
 IR Inten    --    103.0080               302.5855               924.4288

                     43                     44                     45
                      A                      A                      A
 Frequencies --   1367.6937              1377.5544              1389.2982
 Red. masses --      1.5225                 2.6827                 1.5548
 Frc consts  --      1.6780                 2.9995                 1.7681
 IR Inten    --     80.6771               322.0456               573.6466

                     46                     47                     48
                      A                      A                      A
 Frequencies --   1407.2997              1424.1460              1448.8132
 Red. masses --      3.6157                 5.5265                 2.9916
 Frc consts  --      4.2191                 6.6040                 3.6998
 IR Inten    --    694.1953               613.1605               939.2354

                     49                     50                     51
                      A                      A                      A
 Frequencies --   1451.0707              1476.9050              1480.2633
 Red. masses --      1.0808                 1.2008                 1.3871
 Frc consts  --      1.3409                 1.5432                 1.7907
 IR Inten    --     61.9947               257.2017               340.6864

                     52                     53                     54
                      A                      A                      A
 Frequencies --   1483.9376              1511.0440              1513.0692
 Red. masses --      1.0839                 2.7421                 3.4443
 Frc consts  --      1.4063                 3.6889                 4.6458
 IR Inten    --    196.3663               494.5120               164.6571

                     55                     56                     57
                      A                      A                      A
 Frequencies --   1570.5120              1606.4868              2919.4696
 Red. masses --      5.8818                 5.6235                 1.0614
 Frc consts  --      8.5475                 8.5508                 5.3301
 IR Inten    --   3163.1498                17.5013               188.9933

                     58                     59                     60
                      A                      A                      A
 Frequencies --   2958.9660              2976.9867              3005.3704
 Red. masses --      1.0369                 1.0953                 1.0749
 Frc consts  --      5.3492                 5.7192                 5.7202
 IR Inten    --   1138.6695               241.1028               449.2746

                     61                     62                     63
                      A                      A                      A
 Frequencies --   3029.9882              3057.9524              3082.8271
 Red. masses --      1.0999                 1.0957                 1.0864
 Frc consts  --      5.9493                 6.0365                 6.0833
 IR Inten    --     31.4513                18.7949               437.8319

                     64                     65                     66
                      A                      A                      A
 Frequencies --   3096.3904              3145.9459              3152.2964
 Red. masses --      1.0867                 1.0883                 1.0905
 Frc consts  --      6.1385                 6.3458                 6.3847
 IR Inten    --     65.3478                50.8832                49.2996

 - Thermochemistry -
 -------------------
 Temperature   298.150 Kelvin.  Pressure   1.00000 Atm.
 Atom     1 has atomic number  6 and mass  12.00000

 Molecular mass:   186.06808 amu.
 Principal axes and moments of inertia in atomic units:
                           1         2         3
     Eigenvalues --  1652.701303125.032234755.54903
           X            0.99247   0.03559   0.11718
           Y           -0.02864   0.99776  -0.06046
           Z           -0.11907   0.05665   0.99127
 This molecule is an asymmetric top.
 Rotational symmetry number  1.
 Warning -- assumption of classical behavior for rotation
           may cause significant error
 Rotational temperatures (Kelvin)      0.05241     0.02772     0.01821
 Rotational constants (GHZ):           1.09199     0.57751     0.37950
 Zero-point vibrational energy     477704.6 (Joules/Mol)
                                  114.17414 (Kcal/Mol)
 Warning -- explicit consideration of  17 degrees of freedom as
           vibrations may cause significant error
 Vibrational temperatures:    103.06   118.72   158.96   203.43   237.99
          (Kelvin)            288.12   314.12   413.94   422.51   471.70
                              518.46   526.37   598.14   649.73   662.53
                              713.03   742.54   915.05   930.07   964.06
                             1004.09  1015.28  1065.88  1108.99  1160.59
                             1193.46  1260.65  1330.35  1382.51  1384.73
                             1429.21  1480.58  1489.74  1531.55  1574.06
                             1621.11  1645.63  1723.19  1743.57  1764.26
                             1845.51  1918.75  1967.81  1981.99  1998.89
                             2024.79  2049.03  2084.52  2087.77  2124.94
                             2129.77  2135.06  2174.06  2176.97  2259.62
                             2311.38  4200.47  4257.29  4283.22  4324.06
                             4359.48  4399.71  4435.50  4455.02  4526.31
                             4535.45

 Zero-point correction=                           0.181948 (Hartree/Particle)
 Thermal correction to Energy=                    0.194123
 Thermal correction to Enthalpy=                  0.195067
 Thermal correction to Gibbs Free Energy=         0.143815
 Sum of electronic and zero-point Energies=           -613.704942
 Sum of electronic and thermal Energies=              -613.692767
 Sum of electronic and thermal Enthalpies=            -613.691822
 Sum of electronic and thermal Free Energies=         -613.743075

                     E (Thermal)             CV                S
                      KCal/Mol        Cal/Mol-Kelvin    Cal/Mol-Kelvin
 Total                  121.814             47.223            107.870
 Electronic               0.000              0.000              0.000
 Translational            0.889              2.981             41.569
 Rotational               0.889              2.981             31.574
 Vibrational            120.037             41.262             34.726
 Vibration     1          0.598              1.968              4.108
 Vibration     2          0.600              1.961              3.830
 Vibration     3          0.606              1.941              3.260
 Vibration     4          0.615              1.912              2.785
 Vibration     5          0.624              1.885              2.487
 Vibration     6          0.638              1.840              2.131
 Vibration     7          0.646              1.813              1.973
 Vibration     8          0.685              1.697              1.487
 Vibration     9          0.688              1.686              1.453
 Vibration    10          0.711              1.620              1.271
 Vibration    11          0.735              1.554              1.121
 Vibration    12          0.739              1.543              1.097
 Vibration    13          0.779              1.436              0.907
 Vibration    14          0.810              1.357              0.791
 Vibration    15          0.818              1.338              0.765
 Vibration    16          0.851              1.260              0.669
 Vibration    17          0.871              1.214              0.619

 Optimization completed.
    -- Stationary point found.
 Normal termination of Gaussian 16 at Sun Jan  7 20:57:57 2024.
