 Q-Chem 5.4, Q-Chem, Inc., Pleasanton, CA (2021)
 Q-Chem 5.4.0 for Intel X86 EM64T Linux

User input:
--------------------------------------------------------------
$molecule
-2 1
C                  3.7315980000     -1.0399480000     -0.3068030000
C                  2.4311280000     -0.2958890000     -0.1027470000
C                  2.4327070000      1.1231810000     -0.0040540000
C                  1.2495200000      1.8129400000      0.1880480000
C                  0.0031000000      1.1567790000      0.2851320000
C                 -1.2226070000      1.9345120000      0.4690100000
O                 -1.2220110000      3.2199150000      0.5462560000
C                 -2.3991190000      1.1386810000      0.5611940000
C                 -2.4285100000     -0.2635460000      0.4870790000
C                 -3.7376080000     -1.0050980000      0.5823990000
C                 -1.2479480000     -1.0492410000      0.3023540000
O                 -1.2787030000     -2.3369230000      0.2234050000
C                 -0.0119370000     -0.2818370000      0.2052380000
C                  1.2203760000     -0.9562620000      0.0153630000
H                  4.4671100000     -0.8266650000      0.4887140000
H                  3.5757420000     -2.1233370000     -0.3217000000
H                  4.2202110000     -0.7668420000     -1.2495330000
H                  3.3745340000      1.6643620000     -0.0887620000
H                  1.2354510000      2.8965740000      0.2620170000
H                 -3.3356380000      1.6810690000      0.7002620000
H                 -3.7308950000     -1.7246800000      1.4131310000
H                 -4.5758800000     -0.3113640000      0.7225520000
H                 -3.9235010000     -1.6057420000     -0.3199300000
H                  1.1728800000     -2.0406380000     -0.0346900000
$end

$rem
BASIS  =  6-311++G(d,p)
GUI  =  2
JOB_TYPE  =  SP
METHOD  =  B3LYP
SCF_CONVERGENCE  = 8
SOLVENT_METHOD = sm12
$end

$smx
solvent dimethylformamide
charges CM5
$end

--------------------------------------------------------------

             Standard Nuclear Orientation (Angstroms)
    I     Atom           X                Y                Z
 ----------------------------------------------------------------
    1      C       3.7315980000    -1.0399480000    -0.3068030000
    2      C       2.4311280000    -0.2958890000    -0.1027470000
    3      C       2.4327070000     1.1231810000    -0.0040540000
    4      C       1.2495200000     1.8129400000     0.1880480000
    5      C       0.0031000000     1.1567790000     0.2851320000
    6      C      -1.2226070000     1.9345120000     0.4690100000
    7      O      -1.2220110000     3.2199150000     0.5462560000
    8      C      -2.3991190000     1.1386810000     0.5611940000
    9      C      -2.4285100000    -0.2635460000     0.4870790000
   10      C      -3.7376080000    -1.0050980000     0.5823990000
   11      C      -1.2479480000    -1.0492410000     0.3023540000
   12      O      -1.2787030000    -2.3369230000     0.2234050000
   13      C      -0.0119370000    -0.2818370000     0.2052380000
   14      C       1.2203760000    -0.9562620000     0.0153630000
   15      H       4.4671100000    -0.8266650000     0.4887140000
   16      H       3.5757420000    -2.1233370000    -0.3217000000
   17      H       4.2202110000    -0.7668420000    -1.2495330000
   18      H       3.3745340000     1.6643620000    -0.0887620000
   19      H       1.2354510000     2.8965740000     0.2620170000
   20      H      -3.3356380000     1.6810690000     0.7002620000
   21      H      -3.7308950000    -1.7246800000     1.4131310000
   22      H      -4.5758800000    -0.3113640000     0.7225520000
   23      H      -3.9235010000    -1.6057420000    -0.3199300000
   24      H       1.1728800000    -2.0406380000    -0.0346900000
 ----------------------------------------------------------------

   18    -613.8733003858      5.60e-09  Convergence criterion met
 Total energy in the final basis set =     -614.1719694946

                    Orbital Energies (a.u.)
 --------------------------------------------------------------

 Alpha MOs
 -- Occupied --
-19.0270 -19.0242 -10.1868 -10.1801 -10.1796 -10.1783 -10.1718 -10.1711
-10.1701 -10.1648 -10.1553 -10.1547 -10.1471 -10.1384  -0.9424  -0.9386
 -0.8494  -0.7942  -0.7650  -0.7431  -0.7068  -0.6753  -0.6435  -0.5961
 -0.5801  -0.5434  -0.4888  -0.4804  -0.4558  -0.4340  -0.4248  -0.4240
 -0.4168  -0.4094  -0.3882  -0.3870  -0.3766  -0.3737  -0.3623  -0.3551
 -0.3321  -0.3254  -0.3198  -0.3190  -0.2469  -0.2319  -0.2286  -0.2037
 -0.1995  -0.1213

          Ground-State Mulliken Net Atomic Charges

     Atom                 Charge (a.u.)
  ----------------------------------------
      1 C                     3.116598
      2 C                     3.957304
      3 C                     1.765497
      4 C                    -0.607795
      5 C                    -2.142254
      6 C                    -2.029046
      7 O                    -0.362134
      8 C                    -1.300276
      9 C                    -0.209748
     10 C                     1.099172
     11 C                    -2.959527
     12 O                    -0.328796
     13 C                    -2.619286
     14 C                    -1.299227
     15 H                     0.281641
     16 H                     0.441188
     17 H                     0.280497
     18 H                     0.341610
     19 H                     0.128837
     20 H                    -0.098350
     21 H                     0.172171
     22 H                     0.294254
     23 H                     0.168158
     24 H                    -0.090489
  ----------------------------------------
  Sum of atomic charges =    -2.000000

                    Cartesian Multipole Moments
 -----------------------------------------------------------------
    Charge (ESU x 10^10)
                -9.6064
    Dipole Moment (Debye)
         X       9.9721      Y      -4.3397      Z      -3.4729
       Tot      11.4165
    Quadrupole Moments (Debye-Ang)
        XX    -123.1199     XY       2.3094     YY    -151.6943
        XZ       5.2727     YZ      -4.5285     ZZ     -97.8650

 Total job time:  561.96s(wall), 3570.32s(cpu)
        *  Thank you very much for using Q-Chem.  Have a nice day.  *
