 Gaussian 16, Revision A.03,
 Gaussian 16:  ES64L-G16RevA.03 25-Dec-2016

 --------------------------------------
 #P UB3LYP/6-311++G(d,p) nosym opt freq
 --------------------------------------

 -------
 Radical
 -------
 Symbolic Z-matrix:
 Charge = -1 Multiplicity = 2

 SCF Done:  E(UB3LYP) =  -1451.34584264     A.U. after   22 cycles
 SCF Done:  E(UB3LYP) =  -1451.37383020     A.U. after   18 cycles
 SCF Done:  E(UB3LYP) =  -1451.38141554     A.U. after   18 cycles
 SCF Done:  E(UB3LYP) =  -1451.38990579     A.U. after   19 cycles
 SCF Done:  E(UB3LYP) =  -1451.39471091     A.U. after   19 cycles
 SCF Done:  E(UB3LYP) =  -1451.40102693     A.U. after   18 cycles
 SCF Done:  E(UB3LYP) =  -1451.40902114     A.U. after   22 cycles
 SCF Done:  E(UB3LYP) =  -1451.41283619     A.U. after   19 cycles
 SCF Done:  E(UB3LYP) =  -1451.41473717     A.U. after   19 cycles
 SCF Done:  E(UB3LYP) =  -1451.41464339     A.U. after   17 cycles
 SCF Done:  E(UB3LYP) =  -1451.41524582     A.U. after   17 cycles
 SCF Done:  E(UB3LYP) =  -1451.41530445     A.U. after   16 cycles
 SCF Done:  E(UB3LYP) =  -1451.41531229     A.U. after   15 cycles
 SCF Done:  E(UB3LYP) =  -1451.41531408     A.U. after   13 cycles
 Optimization completed.
    -- Stationary point found.
 Normal termination of Gaussian 16 at Wed Dec 20 01:56:47 2023.

 ----------------------------------------------------------------------
 #P Geom=AllCheck Guess=TCheck SCRF=Check GenChk UB3LYP/6-311++G(d,p) F
 req
 ----------------------------------------------------------------------

 Structure from the checkpoint file:  "112-rad.chk"
 -------
 Radical
 -------
 Charge = -1 Multiplicity = 2

                          Input orientation:
 ---------------------------------------------------------------------
 Center     Atomic      Atomic             Coordinates (Angstroms)
 Number     Number       Type             X           Y           Z
 ---------------------------------------------------------------------
      1          8           0        2.542545   -0.997087   -0.252372
      2          6           0        1.317063   -0.444079   -0.124855
      3          6           0        1.098683    0.904987   -0.001602
      4         17           0        2.448761    2.031128   -0.002721
      5          6           0       -0.228575    1.425941    0.130087
      6          8           0       -0.557361    2.640931    0.249120
      7          6           0       -1.316722    0.444153    0.124988
      8          6           0       -1.098528   -0.905189    0.001725
      9         17           0       -2.448895   -2.030910    0.002694
     10          6           0        0.228504   -1.426119   -0.129850
     11          8           0        0.557267   -2.641093   -0.249481
     12          8           0       -2.542267    0.997152    0.252525
     13          1           0        2.326031   -1.955468   -0.314345
     14          1           0       -2.326505    1.955654    0.314088
 ---------------------------------------------------------------------

 SCF Done:  E(UB3LYP) =  -1451.41531408     A.U. after    1 cycles

 Alpha  occ. eigenvalues -- -101.42843-101.42842 -19.03443 -19.03440 -18.97118
 Alpha  occ. eigenvalues --  -18.97116 -10.11962 -10.11960 -10.11735 -10.11732
 Alpha  occ. eigenvalues --  -10.09943 -10.09942  -9.34276  -9.34275  -7.10733
 Alpha  occ. eigenvalues --   -7.10732  -7.09780  -7.09779  -7.09717  -7.09716
 Alpha  occ. eigenvalues --   -0.95942  -0.95722  -0.88670  -0.88628  -0.75549
 Alpha  occ. eigenvalues --   -0.74092  -0.68252  -0.60215  -0.56850  -0.49498
 Alpha  occ. eigenvalues --   -0.46875  -0.44399  -0.39519  -0.38433  -0.33660
 Alpha  occ. eigenvalues --   -0.33613  -0.32512  -0.30233  -0.29762  -0.29527
 Alpha  occ. eigenvalues --   -0.26723  -0.26478  -0.24335  -0.23977  -0.21777
 Alpha  occ. eigenvalues --   -0.21151  -0.19251  -0.19053  -0.14918  -0.14515
 Alpha  occ. eigenvalues --   -0.14247  -0.10252  -0.04401
 Alpha virt. eigenvalues --    0.09783   0.11312   0.11902   0.12383   0.12818
 Alpha virt. eigenvalues --    0.14520   0.15522   0.15994   0.16227   0.16789
 Alpha virt. eigenvalues --    0.17228   0.17875   0.18996   0.19156   0.20078

  Beta  occ. eigenvalues -- -101.42844-101.42843 -19.03332 -19.03329 -18.96493
  Beta  occ. eigenvalues --  -18.96491 -10.11729 -10.11727 -10.11540 -10.11536
  Beta  occ. eigenvalues --  -10.09991 -10.09989  -9.34277  -9.34276  -7.10735
  Beta  occ. eigenvalues --   -7.10734  -7.09782  -7.09781  -7.09719  -7.09718
  Beta  occ. eigenvalues --   -0.95605  -0.95401  -0.87629  -0.87609  -0.75360
  Beta  occ. eigenvalues --   -0.74062  -0.67835  -0.59960  -0.55819  -0.49140
  Beta  occ. eigenvalues --   -0.46500  -0.44148  -0.39177  -0.38272  -0.33560
  Beta  occ. eigenvalues --   -0.32404  -0.32253  -0.29633  -0.29074  -0.28479
  Beta  occ. eigenvalues --   -0.26240  -0.25334  -0.24072  -0.22907  -0.20664
  Beta  occ. eigenvalues --   -0.20030  -0.19212  -0.19005  -0.14352  -0.13645
  Beta  occ. eigenvalues --   -0.12250  -0.09693
  Beta virt. eigenvalues --    0.02791   0.09836   0.11332   0.11916   0.12821
  Beta virt. eigenvalues --    0.13789   0.15562   0.16019   0.16341   0.16832
  Beta virt. eigenvalues --    0.17275   0.17299   0.17899   0.19013   0.19161

 Mulliken charges and spin densities:
               1          2
     1  O   -0.201519   0.033490
     2  C   -1.499857   0.181824
     3  C    2.334796  -0.019722
     4  Cl   0.146996  -0.002595
     5  C   -1.145501   0.082356
     6  O   -0.398886   0.228016
     7  C   -1.499971   0.182187
     8  C    2.334946  -0.019717
     9  Cl   0.146941  -0.002580
    10  C   -1.145686   0.082478
    11  O   -0.398860   0.227860
    12  O   -0.201524   0.033546
    13  H    0.264059  -0.003572
    14  H    0.264066  -0.003572
 Sum of Mulliken charges =  -1.00000   1.00000

 Dipole moment (field-independent basis, Debye):
    X=             -0.0011    Y=              0.0006    Z=              0.0002  Tot=              0.0013
 Quadrupole moment (field-independent basis, Debye-Ang):
   XX=           -104.1467   YY=           -114.2768   ZZ=            -84.7445
   XY=             -5.0152   XZ=              0.9299   YZ=             -2.0467

  Exact polarizability: 144.976   6.507 168.775  -4.996   8.004  64.464
 Approx polarizability: 209.561 -15.230 295.741  -8.957  17.105  97.325

                      1                      2                      3
                      A                      A                      A
 Frequencies --     79.0615               128.4396               148.3739
 Red. masses --     19.8118                13.7551                16.0074
 Frc consts  --      0.0730                 0.1337                 0.2076
 IR Inten    --      0.4391                 2.1141                 0.0001

                      4                      5                      6
                      A                      A                      A
 Frequencies --    189.5890               196.3815               209.5165
 Red. masses --     20.7511                 9.2457                14.2873
 Frc consts  --      0.4395                 0.2101                 0.3695
 IR Inten    --      0.8935                 1.5032                 0.0000

                      7                      8                      9
                      A                      A                      A
 Frequencies --    293.9120               317.4196               340.0281
 Red. masses --     15.3040                 7.2411                11.5692
 Frc consts  --      0.7789                 0.4299                 0.7881
 IR Inten    --      0.0001                16.9323                 0.0000

                     10                     11                     12
                      A                      A                      A
 Frequencies --    372.9725               373.9747               417.6658
 Red. masses --      8.1543                 9.8568                10.4089
 Frc consts  --      0.6683                 0.8122                 1.0698
 IR Inten    --      0.3986                34.5528                 0.0000

                     13                     14                     15
                      A                      A                      A
 Frequencies --    439.5166               531.6520               531.7265
 Red. masses --     12.6167                16.0338                12.4730
 Frc consts  --      1.4360                 2.6702                 2.0778
 IR Inten    --      0.0000                 2.7868                 0.0232

                     16                     17                     18
                      A                      A                      A
 Frequencies --    582.3245               708.8421               727.0215
 Red. masses --      9.4248                 6.1152                10.6350
 Frc consts  --      1.8830                 1.8103                 3.3119
 IR Inten    --      0.0177                11.2552                 0.0011

                     19                     20                     21
                      A                      A                      A
 Frequencies --    738.0677               741.4863               781.0218
 Red. masses --      1.0919                 1.2074                 8.1150
 Frc consts  --      0.3505                 0.3911                 2.9165
 IR Inten    --      0.8016               170.2543                 0.0000

                     22                     23                     24
                      A                      A                      A
 Frequencies --    823.5701               913.1067              1017.1165
 Red. masses --      9.9386                12.7271                 9.1997
 Frc consts  --      3.9717                 6.2521                 5.6075
 IR Inten    --    193.4979                 0.0002               143.2245

                     25                     26                     27
                      A                      A                      A
 Frequencies --   1193.0014              1213.5510              1226.8493
 Red. masses --      6.2798                 8.9877                 6.5287
 Frc consts  --      5.2660                 7.7986                 5.7897
 IR Inten    --     56.4023                 0.0074                69.6358

                     28                     29                     30
                      A                      A                      A
 Frequencies --   1303.8908              1409.1396              1450.6452
 Red. masses --      2.2815                 1.9267                 3.1690
 Frc consts  --      2.2854                 2.2541                 3.9292
 IR Inten    --      0.0121               943.3080                 0.0074

                     31                     32                     33
                      A                      A                      A
 Frequencies --   1536.7024              1572.8751              1588.4334
 Red. masses --     12.5049                 6.3719                 4.0626
 Frc consts  --     17.3984                 9.2876                 6.0394
 IR Inten    --    377.9498                 0.0024               155.7031

                     34                     35                     36
                      A                      A                      A
 Frequencies --   1646.5216              3459.1378              3460.9775
 Red. masses --      6.6827                 1.0633                 1.0633
 Frc consts  --     10.6743                 7.4959                 7.5038
 IR Inten    --      0.0049                23.8756               192.2592

 - Thermochemistry -
 -------------------
 Temperature   298.150 Kelvin.  Pressure   1.00000 Atm.
 Atom     1 has atomic number  8 and mass  15.99491

 Molecular mass:   207.93301 amu.
 Principal axes and moments of inertia in atomic units:
                           1         2         3
     Eigenvalues --  1638.793173175.730864814.52396
           X            0.78028  -0.62180   0.06733
           Y            0.62543   0.77619  -0.07981
           Z           -0.00264   0.10438   0.99453
 This molecule is an asymmetric top.
 Rotational symmetry number  1.
 Warning -- assumption of classical behavior for rotation
           may cause significant error
 Rotational temperatures (Kelvin)      0.05285     0.02727     0.01799
 Rotational constants (GHZ):           1.10126     0.56829     0.37485
 Zero-point vibrational energy     195377.2 (Joules/Mol)
                                   46.69626 (Kcal/Mol)
 Warning -- explicit consideration of  16 degrees of freedom as
           vibrations may cause significant error
 Vibrational temperatures:    113.75   184.80   213.48   272.78   282.55
          (Kelvin)            301.45   422.87   456.70   489.22   536.62
                              538.07   600.93   632.37   764.93   765.04
                              837.84  1019.87  1046.02  1061.91  1066.83
                             1123.72  1184.93  1313.76  1463.40  1716.46
                             1746.03  1765.16  1876.01  2027.44  2087.15
                             2210.97  2263.02  2285.40  2368.98  4976.93
                             4979.57

 Zero-point correction=                           0.074415 (Hartree/Particle)
 Thermal correction to Energy=                    0.084785
 Thermal correction to Enthalpy=                  0.085730
 Thermal correction to Gibbs Free Energy=         0.037111
 Sum of electronic and zero-point Energies=          -1451.340899
 Sum of electronic and thermal Energies=             -1451.330529
 Sum of electronic and thermal Enthalpies=           -1451.329584
 Sum of electronic and thermal Free Energies=        -1451.378203

                     E (Thermal)             CV                S
                      KCal/Mol        Cal/Mol-Kelvin    Cal/Mol-Kelvin
 Total                   53.204             37.890            102.327
 Electronic               0.000              0.000              1.377
 Translational            0.889              2.981             41.900
 Rotational               0.889              2.981             31.594
 Vibrational             51.426             31.929             27.455
 Vibration     1          0.600              1.963              3.914
 Vibration     2          0.611              1.925              2.969
 Vibration     3          0.618              1.904              2.693
 Vibration     4          0.633              1.854              2.232
 Vibration     5          0.636              1.845              2.167
 Vibration     6          0.642              1.826              2.048
 Vibration     7          0.689              1.685              1.451
 Vibration     8          0.704              1.640              1.323
 Vibration     9          0.720              1.596              1.212
 Vibration    10          0.744              1.528              1.068
 Vibration    11          0.745              1.526              1.063
 Vibration    12          0.781              1.432              0.900
 Vibration    13          0.800              1.384              0.828
 Vibration    14          0.887              1.180              0.584
 Vibration    15          0.887              1.180              0.583
 Vibration    16          0.939              1.070              0.481

 Optimization completed.
    -- Stationary point found.
 Normal termination of Gaussian 16 at Wed Dec 20 02:05:56 2023.
