 Gaussian 16, Revision A.03,
 Gaussian 16:  ES64L-G16RevA.03 25-Dec-2016

 ----------------------------------------------------------------------
 #P UB3LYP/6-311++G(d,p) nosym opt freq SCRF=(PCM,Solvent=n,n-DiMethylF
 ormamide)
 ----------------------------------------------------------------------

 -------
 Radical
 -------
 Symbolic Z-matrix:
 Charge = -1 Multiplicity = 2

 SCF Done:  E(UB3LYP) =  -574.739204659     A.U. after   17 cycles
 SCF Done:  E(UB3LYP) =  -574.739437075     A.U. after   14 cycles
 SCF Done:  E(UB3LYP) =  -574.739466939     A.U. after   13 cycles
 SCF Done:  E(UB3LYP) =  -574.739466272     A.U. after   12 cycles
 SCF Done:  E(UB3LYP) =  -574.739467566     A.U. after   12 cycles
 Optimization completed.
    -- Stationary point found.
 Normal termination of Gaussian 16 at Sun Feb 11 00:58:06 2024.

 ----------------------------------------------------------------------
 #P Geom=AllCheck Guess=TCheck SCRF=Check GenChk UB3LYP/6-311++G(d,p) F
 req
 ----------------------------------------------------------------------

 Structure from the checkpoint file:  "238-rad.chk"
 -------
 Radical
 -------
 Charge = -1 Multiplicity = 2

                          Input orientation:
 ---------------------------------------------------------------------
 Center     Atomic      Atomic             Coordinates (Angstroms)
 Number     Number       Type             X           Y           Z
 ---------------------------------------------------------------------
      1          6           0        5.734501   -5.286160    1.374850
      2          6           0        6.688569   -5.186407    0.379916
      3          6           0        6.577241   -4.211993   -0.637615
      4          6           0        4.621110   -4.422664    1.409339
      5          6           0        4.495082   -3.439988    0.392315
      6          6           0        5.483025   -3.359864   -0.610254
      7          6           0        3.617279   -4.545038    2.479631
      8          6           0        2.520672   -3.623028    2.421603
      9          6           0        2.396536   -2.668567    1.433792
     10          6           0        3.350966   -2.510926    0.375822
     11          8           0        3.722175   -5.416227    3.395895
     12          8           0        3.223239   -1.627099   -0.525931
     13          1           0        5.826206   -6.035651    2.152160
     14          1           0        7.536791   -5.864704    0.377298
     15          1           0        1.770403   -3.702509    3.203046
     16          1           0        1.547507   -1.991112    1.433197
     17          6           0        7.629094   -4.114441   -1.716027
     18          1           0        5.364799   -2.600943   -1.375536
     19          1           0        7.708919   -5.051219   -2.277099
     20          1           0        8.616710   -3.913669   -1.288136
     21          1           0        7.399497   -3.315693   -2.423817
 ---------------------------------------------------------------------

 SCF Done:  E(UB3LYP) =  -574.739467566     A.U. after    1 cycles

 Alpha  occ. eigenvalues --  -19.07508 -19.07505 -10.22045 -10.22005 -10.18167
 Alpha  occ. eigenvalues --  -10.17271 -10.17100 -10.16996 -10.16937 -10.16588
 Alpha  occ. eigenvalues --  -10.16361 -10.16190 -10.16124  -0.99563  -0.99305
 Alpha  occ. eigenvalues --   -0.85943  -0.80681  -0.76319  -0.74482  -0.69343
 Alpha  occ. eigenvalues --   -0.66767  -0.61569  -0.59428  -0.55817  -0.50288
 Alpha  occ. eigenvalues --   -0.48766  -0.47259  -0.44250  -0.42825  -0.42273
 Alpha  occ. eigenvalues --   -0.42157  -0.40995  -0.40800  -0.39052  -0.38351
 Alpha  occ. eigenvalues --   -0.37623  -0.37426  -0.34538  -0.34133  -0.33412
 Alpha  occ. eigenvalues --   -0.27587  -0.25468  -0.24394  -0.24277  -0.23741
 Alpha  occ. eigenvalues --   -0.15455
 Alpha virt. eigenvalues --   -0.03159  -0.01700  -0.00223   0.00819   0.01404
 Alpha virt. eigenvalues --    0.02587   0.03027   0.03560   0.04551   0.04845
 Alpha virt. eigenvalues --    0.05031   0.05844   0.06173   0.06917   0.07194

  Beta  occ. eigenvalues --  -19.06870 -19.06859 -10.21896 -10.21848 -10.18137
  Beta  occ. eigenvalues --  -10.17228 -10.17067 -10.16983 -10.16921 -10.16576
  Beta  occ. eigenvalues --  -10.16363 -10.16030 -10.15957  -0.98446  -0.98154
  Beta  occ. eigenvalues --   -0.85774  -0.80158  -0.76145  -0.74288  -0.69076
  Beta  occ. eigenvalues --   -0.65906  -0.61370  -0.59198  -0.55535  -0.50057
  Beta  occ. eigenvalues --   -0.48557  -0.46904  -0.44153  -0.42704  -0.42007
  Beta  occ. eigenvalues --   -0.41977  -0.40472  -0.39473  -0.38791  -0.38192
  Beta  occ. eigenvalues --   -0.37437  -0.34755  -0.34385  -0.33298  -0.33284
  Beta  occ. eigenvalues --   -0.24839  -0.24610  -0.23803  -0.23675  -0.23155
  Beta virt. eigenvalues --   -0.08653  -0.02412  -0.00646  -0.00211   0.00836
  Beta virt. eigenvalues --    0.01418   0.02608   0.03046   0.03713   0.04570
  Beta virt. eigenvalues --    0.05041   0.05933   0.06200   0.06423   0.07079

 Mulliken charges and spin densities:
               1          2
     1  C    0.135393   0.033838
     2  C   -0.401456   0.011822
     3  C    0.474341   0.019941
     4  C    0.130113   0.006431
     5  C    0.042203   0.019744
     6  C   -0.262013   0.033146
     7  C   -0.742967   0.070326
     8  C    0.167420   0.152007
     9  C    0.001158   0.111069
    10  C   -0.462934   0.106271
    11  O   -0.503009   0.228272
    12  O   -0.498240   0.233488
    13  H    0.162236  -0.002449
    14  H    0.180777  -0.001600
    15  H    0.178995  -0.010545
    16  H    0.181517  -0.010939
    17  C   -0.404074  -0.000772
    18  H    0.131291  -0.002975
    19  H    0.162709   0.001463
    20  H    0.162838   0.001464
    21  H    0.163702  -0.000002
 Sum of Mulliken charges =  -1.00000   1.00000

 Dipole moment (field-independent basis, Debye):
    X=            -16.1714    Y=             16.8490    Z=             -7.2886  Tot=             24.4648
 Quadrupole moment (field-independent basis, Debye-Ang):
   XX=           -127.9815   YY=           -157.1410   ZZ=           -108.5994
   XY=             56.3838   XZ=            -31.5554   YZ=             44.9567

  Exact polarizability: 235.328 -55.085 210.044 -54.197 -67.403 235.424
 Approx polarizability: 249.182 -58.604 242.165 -49.564 -84.579 265.475

                      1                      2                      3
                      A                      A                      A
 Frequencies --     71.4270                93.3933               110.1860
 Red. masses --      1.0917                 3.4717                 6.2403
 Frc consts  --      0.0033                 0.0178                 0.0446
 IR Inten    --      0.6854                 5.8643                14.0062

                      4                      5                      6
                      A                      A                      A
 Frequencies --    163.8110               209.7591               278.2846
 Red. masses --      4.8405                 4.6862                 4.1523
 Frc consts  --      0.0765                 0.1215                 0.1895
 IR Inten    --      0.4035                 3.5741                 1.6399

                      7                      8                      9
                      A                      A                      A
 Frequencies --    337.2794               339.1539               363.9192
 Red. masses --      6.1485                 4.8188                 4.5393
 Frc consts  --      0.4121                 0.3266                 0.3542
 IR Inten    --     18.1511                 0.4477                 7.5131

                     10                     11                     12
                      A                      A                      A
 Frequencies --    430.2663               453.6918               466.4376
 Red. masses --      3.0930                 6.4693                 8.5137
 Frc consts  --      0.3374                 0.7846                 1.0913
 IR Inten    --      5.4813                 7.4083                 0.9084

                     13                     14                     15
                      A                      A                      A
 Frequencies --    515.2231               537.8041               606.1083
 Red. masses --      3.6958                 7.3485                 4.7241
 Frc consts  --      0.5780                 1.2523                 1.0225
 IR Inten    --      9.1515                 3.3244                 0.9714

                     16                     17                     18
                      A                      A                      A
 Frequencies --    631.2999               675.8785               684.9198
 Red. masses --      2.2865                 3.8147                 4.7686
 Frc consts  --      0.5369                 1.0267                 1.3180
 IR Inten    --      0.2240                 5.9670                 3.5243

                     19                     20                     21
                      A                      A                      A
 Frequencies --    723.2453               783.8986               786.1979
 Red. masses --      6.5572                 6.9791                 4.3202
 Frc consts  --      2.0209                 2.5268                 1.5733
 IR Inten    --      0.1550                89.1688                 4.0231

                     22                     23                     24
                      A                      A                      A
 Frequencies --    819.6331               847.0826               906.0032
 Red. masses --      1.6280                 1.7094                 3.9604
 Frc consts  --      0.6444                 0.7227                 1.9153
 IR Inten    --    134.7331                 1.4565                13.8449

                     25                     26                     27
                      A                      A                      A
 Frequencies --    919.2511               937.7500               990.7447
 Red. masses --      1.3748                 1.2862                 1.3275
 Frc consts  --      0.6845                 0.6664                 0.7677
 IR Inten    --      6.3276                 0.0673                 1.0841

                     28                     29                     30
                      A                      A                      A
 Frequencies --   1011.6172              1059.8371              1067.3960
 Red. masses --      1.4663                 1.5366                 2.2457
 Frc consts  --      0.8841                 1.0169                 1.5075
 IR Inten    --     13.9088                 7.4320                31.8572

                     31                     32                     33
                      A                      A                      A
 Frequencies --   1080.2067              1141.3527              1166.7599
 Red. masses --      3.0546                 1.4141                 1.4964
 Frc consts  --      2.1000                 1.0854                 1.2002
 IR Inten    --      1.3499                21.9073                20.2393

                     34                     35                     36
                      A                      A                      A
 Frequencies --   1216.9298              1239.0173              1247.0770
 Red. masses --      2.4008                 1.8272                 4.5785
 Frc consts  --      2.0947                 1.6527                 4.1953
 IR Inten    --      4.7069               123.4277                 5.6587

                     37                     38                     39
                      A                      A                      A
 Frequencies --   1311.0176              1351.9418              1404.4304
 Red. masses --      1.7805                 7.5851                 2.3073
 Frc consts  --      1.8031                 8.1682                 2.6813
 IR Inten    --     13.9740                 1.0346                22.9335

                     40                     41                     42
                      A                      A                      A
 Frequencies --   1407.1958              1433.6730              1467.2951
 Red. masses --      1.2877                 5.1865                 7.4231
 Frc consts  --      1.5023                 6.2810                 9.4161
 IR Inten    --      3.0700               562.5458                59.3121

                     43                     44                     45
                      A                      A                      A
 Frequencies --   1474.3957              1480.3402              1482.7734
 Red. masses --      1.0431                 1.3454                 2.7932
 Frc consts  --      1.3360                 1.7371                 3.6183
 IR Inten    --     10.5038                79.0503               330.7431

                     46                     47                     48
                      A                      A                      A
 Frequencies --   1518.8108              1551.8973              1617.6888
 Red. masses --      3.8639                 4.5298                 7.4087
 Frc consts  --      5.2516                 6.4277                11.4231
 IR Inten    --    898.4213                77.1924                11.4949

                     49                     50                     51
                      A                      A                      A
 Frequencies --   1640.9534              3017.9412              3063.5821
 Red. masses --      6.2193                 1.0376                 1.1002
 Frc consts  --      9.8670                 5.5681                 6.0841
 IR Inten    --     26.3723                70.1607                29.6344

                     52                     53                     54
                      A                      A                      A
 Frequencies --   3100.6069              3141.8336              3150.8970
 Red. masses --      1.1002                 1.0858                 1.0887
 Frc consts  --      6.2318                 6.3146                 6.3684
 IR Inten    --     33.6469                42.1403                27.9577

                     55                     56                     57
                      A                      A                      A
 Frequencies --   3160.6493              3173.5918              3186.0750
 Red. masses --      1.0942                 1.0894                 1.0918
 Frc consts  --      6.4403                 6.4646                 6.5299
 IR Inten    --     44.9170                13.4779                19.2394

 - Thermochemistry -
 -------------------
 Temperature   298.150 Kelvin.  Pressure   1.00000 Atm.
 Atom     1 has atomic number  6 and mass  12.00000

 Molecular mass:   172.05243 amu.
 Principal axes and moments of inertia in atomic units:
                           1         2         3
     Eigenvalues --  1429.637362498.125683916.61343
           X            0.79033  -0.32879   0.51699
           Y           -0.10937   0.75455   0.64707
           Z           -0.60284  -0.56794   0.56038
 This molecule is an asymmetric top.
 Rotational symmetry number  1.
 Warning -- assumption of classical behavior for rotation
           may cause significant error
 Rotational temperatures (Kelvin)      0.06058     0.03467     0.02211
 Rotational constants (GHZ):           1.26238     0.72244     0.46079
 Zero-point vibrational energy     413013.3 (Joules/Mol)
                                   98.71255 (Kcal/Mol)
 Warning -- explicit consideration of  15 degrees of freedom as
           vibrations may cause significant error
 Vibrational temperatures:    102.77   134.37   158.53   235.69   301.80
          (Kelvin)            400.39   485.27   487.97   523.60   619.06
                              652.76   671.10   741.29   773.78   872.05
                              908.30   972.44   985.45  1040.59  1127.86
                             1131.16  1179.27  1218.76  1303.54  1322.60
                             1349.21  1425.46  1455.49  1524.87  1535.74
                             1554.18  1642.15  1678.71  1750.89  1782.67
                             1794.27  1886.26  1945.14  2020.66  2024.64
                             2062.74  2111.11  2121.33  2129.88  2133.38
                             2185.23  2232.83  2327.49  2360.97  4342.14
                             4407.81  4461.08  4520.40  4533.44  4547.47
                             4566.09  4584.05

 Zero-point correction=                           0.157308 (Hartree/Particle)
 Thermal correction to Energy=                    0.167724
 Thermal correction to Enthalpy=                  0.168668
 Thermal correction to Gibbs Free Energy=         0.120358
 Sum of electronic and zero-point Energies=           -574.582159
 Sum of electronic and thermal Energies=              -574.571744
 Sum of electronic and thermal Enthalpies=            -574.570799
 Sum of electronic and thermal Free Energies=         -574.619109

                     E (Thermal)             CV                S
                      KCal/Mol        Cal/Mol-Kelvin    Cal/Mol-Kelvin
 Total                  105.248             40.750            101.677
 Electronic               0.000              0.000              1.377
 Translational            0.889              2.981             41.335
 Rotational               0.889              2.981             31.015
 Vibrational            103.471             34.789             27.949
 Vibration     1          0.598              1.968              4.114
 Vibration     2          0.602              1.954              3.588
 Vibration     3          0.606              1.941              3.266
 Vibration     4          0.623              1.887              2.505
 Vibration     5          0.642              1.826              2.046
 Vibration     6          0.679              1.714              1.544
 Vibration     7          0.718              1.601              1.225
 Vibration     8          0.719              1.597              1.216
 Vibration     9          0.737              1.547              1.105
 Vibration    10          0.791              1.404              0.858
 Vibration    11          0.812              1.353              0.785
 Vibration    12          0.824              1.325              0.748
 Vibration    13          0.870              1.216              0.621
 Vibration    14          0.893              1.166              0.570
 Vibration    15          0.965              1.019              0.439

 Optimization completed.
    -- Stationary point found.
 Normal termination of Gaussian 16 at Sun Feb 11 01:30:08 2024.
