 Q-Chem 5.4, Q-Chem, Inc., Pleasanton, CA (2021)
 Q-Chem 5.4.0 for Intel X86 EM64T Linux

User input:
--------------------------------------------------------------
$molecule
0 1
C                  2.9641980000     -0.5844280000      0.4891650000
O                  1.7803700000      0.2326730000      0.5833350000
C                  0.5689100000     -0.2804640000      0.3042630000
C                 -0.3489360000      0.5174830000     -0.3242660000
O                  0.0427320000      1.7307000000     -0.7526280000
C                 -0.8528790000      2.8582860000     -0.6864950000
C                 -1.6994570000     -0.0089150000     -0.6593310000
O                 -2.4864240000      0.6268260000     -1.3446560000
C                 -2.0624720000     -1.3660190000     -0.1735580000
C                 -1.1813510000     -2.1280110000      0.4761270000
C                  0.1798090000     -1.6275110000      0.8016980000
O                  0.9312630000     -2.3009400000      1.4908800000
H                  2.9223380000     -1.2230520000     -0.3965350000
H                  3.7853870000      0.1237170000      0.3875600000
H                  3.0904610000     -1.1964310000      1.3796050000
H                 -0.2045710000      3.7326660000     -0.7223560000
H                 -1.4081840000      2.8548970000      0.2545930000
H                 -1.5467820000      2.8579460000     -1.5242880000
H                 -3.0684630000     -1.6914860000     -0.4122230000
H                 -1.4059510000     -3.1279390000      0.8291100000
$end
$rem
MAX_SCF_CYCLES=200
BASIS  =  6-311++G(d,p)
GUI  =  2
JOB_TYPE  =  SP
METHOD  =  B3LYP
SOLVENT_METHOD = PCM
$end
$pcm
theory = CPCM
$end
$solvent
dielectric 37.219
opticaldielectric 1.43
$end

--------------------------------------------------------------

             Standard Nuclear Orientation (Angstroms)
    I     Atom           X                Y                Z
 ----------------------------------------------------------------
    1      C       2.9641980000    -0.5844280000     0.4891650000
    2      O       1.7803700000     0.2326730000     0.5833350000
    3      C       0.5689100000    -0.2804640000     0.3042630000
    4      C      -0.3489360000     0.5174830000    -0.3242660000
    5      O       0.0427320000     1.7307000000    -0.7526280000
    6      C      -0.8528790000     2.8582860000    -0.6864950000
    7      C      -1.6994570000    -0.0089150000    -0.6593310000
    8      O      -2.4864240000     0.6268260000    -1.3446560000
    9      C      -2.0624720000    -1.3660190000    -0.1735580000
   10      C      -1.1813510000    -2.1280110000     0.4761270000
   11      C       0.1798090000    -1.6275110000     0.8016980000
   12      O       0.9312630000    -2.3009400000     1.4908800000
   13      H       2.9223380000    -1.2230520000    -0.3965350000
   14      H       3.7853870000     0.1237170000     0.3875600000
   15      H       3.0904610000    -1.1964310000     1.3796050000
   16      H      -0.2045710000     3.7326660000    -0.7223560000
   17      H      -1.4081840000     2.8548970000     0.2545930000
   18      H      -1.5467820000     2.8579460000    -1.5242880000
   19      H      -3.0684630000    -1.6914860000    -0.4122230000
   20      H      -1.4059510000    -3.1279390000     0.8291100000
 ----------------------------------------------------------------

    8    -610.6806966548      9.62e-06  Convergence criterion met
 Total energy in the final basis set =     -610.6806966548

                    Orbital Energies (a.u.)
 --------------------------------------------------------------

 Alpha MOs
 -- Occupied --
-19.1700 -19.1700 -19.1439 -19.1439 -10.2919 -10.2919 -10.2625 -10.2619
-10.2212 -10.2212 -10.2117 -10.2108  -1.1022  -1.0861  -1.0697  -1.0624
 -0.8611  -0.7964  -0.7350  -0.7044  -0.6969  -0.6270  -0.6059  -0.5509
 -0.5305  -0.5288  -0.4949  -0.4935  -0.4753  -0.4681  -0.4605  -0.4507
 -0.4373  -0.4227  -0.4209  -0.4161  -0.3787  -0.3701  -0.3417  -0.3348
 -0.3128  -0.2844  -0.2842  -0.2437

          Ground-State Mulliken Net Atomic Charges

     Atom                 Charge (a.u.)
  ----------------------------------------
      1 C                    -0.312934
      2 O                    -0.206506
      3 C                     0.103877
      4 C                     0.095770
      5 O                    -0.205639
      6 C                    -0.313114
      7 C                    -0.183879
      8 O                    -0.295208
      9 C                     0.091248
     10 C                     0.090658
     11 C                    -0.188657
     12 O                    -0.294796
     13 H                     0.182208
     14 H                     0.168625
     15 H                     0.195638
     16 H                     0.168630
     17 H                     0.182596
     18 H                     0.195687
     19 H                     0.262953
     20 H                     0.262842
  ----------------------------------------
  Sum of atomic charges =     0.000000

                    Cartesian Multipole Moments
 -----------------------------------------------------------------
    Charge (ESU x 10^10)
                -0.0000
    Dipole Moment (Debye)
         X      -0.3866      Y      -0.4142      Z       0.0308
       Tot       0.5674
    Quadrupole Moments (Debye-Ang)
        XX     -66.1845     XY       3.8155     YY     -64.5394
        XZ      -6.8211     YZ       5.0494     ZZ     -76.2958

 Total job time:  18.35s(wall), 133.42s(cpu)
        *  Thank you very much for using Q-Chem.  Have a nice day.  *
