 Q-Chem 5.4, Q-Chem, Inc., Pleasanton, CA (2021)
 Q-Chem 5.4.0 for Intel X86 EM64T Linux

User input:
--------------------------------------------------------------
$molecule
-3 1
C                 -5.0345220000     -0.0749040000     -3.9597650000
C                 -4.4804180000     -0.0554460000     -5.2313560000
C                 -3.0753550000     -0.0122730000     -5.3788690000
C                 -4.2406670000     -0.0501120000     -2.7938950000
C                 -2.8184940000      0.0274410000     -2.9444750000
C                 -2.2741180000      0.0280930000     -4.2500400000
C                 -4.9088440000     -0.0936820000     -1.4686350000
C                 -3.9964250000     -0.0333610000     -0.3410720000
C                 -2.6201000000      0.0443790000     -0.5095160000
C                 -1.9439490000      0.0833940000     -1.7736810000
O                 -6.1631680000     -0.1670680000     -1.3868770000
O                 -0.6684710000      0.1525560000     -1.8742440000
S                 -4.6213820000     -0.0651990000      1.3949260000
O                 -5.4956440000      1.1342050000      1.5738170000
O                 -5.3416110000     -1.3614990000      1.5851270000
O                 -3.3902260000      0.0148370000      2.2538200000
H                 -6.1097350000     -0.1131420000     -3.8168150000
H                 -5.1168180000     -0.0761500000     -6.1157540000
H                 -2.6343090000     -0.0073450000     -6.3758280000
H                 -1.1922220000      0.0651090000     -4.3307480000
H                 -2.0014300000      0.0821360000      0.3798270000
$end
$rem
MAX_SCF_CYCLES=200
BASIS  =  6-311++G(d,p)
GUI  =  2
JOB_TYPE  =  SP
METHOD  =  B3LYP
SOLVENT_METHOD = PCM
$end
$pcm
theory = CPCM
$end
$solvent
dielectric 37.219
opticaldielectric 1.43
$end

--------------------------------------------------------------

             Standard Nuclear Orientation (Angstroms)
    I     Atom           X                Y                Z
 ----------------------------------------------------------------
    1      C      -5.0345220000    -0.0749040000    -3.9597650000
    2      C      -4.4804180000    -0.0554460000    -5.2313560000
    3      C      -3.0753550000    -0.0122730000    -5.3788690000
    4      C      -4.2406670000    -0.0501120000    -2.7938950000
    5      C      -2.8184940000     0.0274410000    -2.9444750000
    6      C      -2.2741180000     0.0280930000    -4.2500400000
    7      C      -4.9088440000    -0.0936820000    -1.4686350000
    8      C      -3.9964250000    -0.0333610000    -0.3410720000
    9      C      -2.6201000000     0.0443790000    -0.5095160000
   10      C      -1.9439490000     0.0833940000    -1.7736810000
   11      O      -6.1631680000    -0.1670680000    -1.3868770000
   12      O      -0.6684710000     0.1525560000    -1.8742440000
   13      S      -4.6213820000    -0.0651990000     1.3949260000
   14      O      -5.4956440000     1.1342050000     1.5738170000
   15      O      -5.3416110000    -1.3614990000     1.5851270000
   16      O      -3.3902260000     0.0148370000     2.2538200000
   17      H      -6.1097350000    -0.1131420000    -3.8168150000
   18      H      -5.1168180000    -0.0761500000    -6.1157540000
   19      H      -2.6343090000    -0.0073450000    -6.3758280000
   20      H      -1.1922220000     0.0651090000    -4.3307480000
   21      H      -2.0014300000     0.0821360000     0.3798270000
 ----------------------------------------------------------------

    9   -1158.9849219665      5.90e-06  Convergence criterion met
 Total energy in the final basis set =    -1158.9849219665

                    Orbital Energies (a.u.)
 --------------------------------------------------------------

 Alpha MOs
 -- Occupied --
-89.0220 -19.0712 -19.0712 -19.0687 -19.0230 -19.0159 -10.1841 -10.1704
-10.1512 -10.1496 -10.1474 -10.1468 -10.1443 -10.1404 -10.1390 -10.1185
 -8.0809  -6.0439  -6.0438  -6.0420  -1.0833  -0.9539  -0.9503  -0.9458
 -0.9359  -0.8272  -0.7677  -0.7225  -0.7131  -0.6409  -0.6071  -0.5840
 -0.5516  -0.5248  -0.4786  -0.4736  -0.4472  -0.4337  -0.4330  -0.4254
 -0.4034  -0.3993  -0.3819  -0.3754  -0.3627  -0.3547  -0.3295  -0.3264
 -0.3196  -0.3155  -0.3149  -0.3077  -0.2821  -0.2722  -0.2712  -0.2378
 -0.2314  -0.2283  -0.2192  -0.2026  -0.1946  -0.1098

          Ground-State Mulliken Net Atomic Charges

     Atom                 Charge (a.u.)
  ----------------------------------------
      1 C                     0.051165
      2 C                    -0.463248
      3 C                    -0.426247
      4 C                    -0.006438
      5 C                     0.417553
      6 C                    -0.035250
      7 C                    -0.493098
      8 C                    -0.528669
      9 C                    -0.013907
     10 C                    -0.394936
     11 O                    -0.623092
     12 O                    -0.727290
     13 S                     0.763591
     14 O                    -0.428216
     15 O                    -0.424659
     16 O                    -0.496144
     17 H                     0.147432
     18 H                     0.174572
     19 H                     0.178257
     20 H                     0.141029
     21 H                     0.187595
  ----------------------------------------
  Sum of atomic charges =    -3.000000

                    Cartesian Multipole Moments
 -----------------------------------------------------------------
    Charge (ESU x 10^10)
               -14.4096
    Dipole Moment (Debye)
         X      56.3480      Y       0.4288      Z       4.3140
       Tot      56.5145
    Quadrupole Moments (Debye-Ang)
        XX    -400.0057     XY      -5.1730     YY    -121.1852
        XZ       4.7655     YZ       0.9909     ZZ    -168.0895

 Total job time:  31.31s(wall), 234.78s(cpu)
        *  Thank you very much for using Q-Chem.  Have a nice day.  *
