 Gaussian 16, Revision A.03,
 Gaussian 16:  ES64L-G16RevA.03 25-Dec-2016

 ----------------------------------------------------------------
 #P UB3LYP/6-311++G(d,p) SCRF=(PCM,Solvent=n,n-DiMethylFormamide)
 ----------------------------------------------------------------

 -------
 Reduced
 -------
 Symbolic Z-matrix:
 Charge = -2 Multiplicity = 1

                         Standard orientation:
 ---------------------------------------------------------------------
 Center     Atomic      Atomic             Coordinates (Angstroms)
 Number     Number       Type             X           Y           Z
 ---------------------------------------------------------------------
      1          7           0       -5.094086   -0.600108   -0.087080
      2          6           0       -3.748659   -0.127907   -0.020264
      3          6           0       -3.513478    1.275129   -0.008171
      4          6           0       -2.220286    1.755857    0.010931
      5          6           0       -1.093138    0.902170    0.000999
      6          6           0        0.241326    1.481831    0.001946
      7          8           0        0.441855    2.741557    0.008434
      8          6           0        1.329192    0.518268   -0.004206
      9          6           0        2.667809    0.985573   -0.004452
     10          6           0        3.748621    0.127889   -0.020270
     11          7           0        5.094075    0.600130   -0.087211
     12          6           0        3.513478   -1.275138   -0.008102
     13          6           0        2.220278   -1.755852    0.011018
     14          6           0        1.093134   -0.902149    0.001059
     15          6           0       -0.241335   -1.481810    0.001948
     16          8           0       -0.441849   -2.741545    0.008326
     17          6           0       -1.329170   -0.518243   -0.004286
     18          6           0       -2.667818   -0.985565   -0.004491
     19          1           0       -5.719546   -0.079488    0.530495
     20          1           0       -5.157509   -1.584463    0.154314
     21          1           0       -4.359373    1.958717   -0.034771
     22          1           0       -2.023209    2.823126    0.020659
     23          1           0        2.807627    2.063281    0.011143
     24          1           0        5.719692    0.079066    0.529811
     25          1           0        5.157660    1.584310    0.154851
     26          1           0        4.359376   -1.958728   -0.034528
     27          1           0        2.023203   -2.823121    0.020815
     28          1           0       -2.807599   -2.063278    0.011207
 ---------------------------------------------------------------------

 SCF Done:  E(UB3LYP) =  -799.940284123     A.U. after   17 cycles

 The electronic state is 1-A.
 Alpha  occ. eigenvalues --  -19.01453 -19.01453 -14.30169 -14.30169 -10.18292
 Alpha  occ. eigenvalues --  -10.18292 -10.16601 -10.16600 -10.14540 -10.14540
 Alpha  occ. eigenvalues --  -10.14479 -10.14479 -10.13435 -10.13435 -10.12842
 Alpha  occ. eigenvalues --  -10.12841 -10.12731 -10.12730  -0.93840  -0.93523
 Alpha  occ. eigenvalues --   -0.89419  -0.89403  -0.81356  -0.80432  -0.73767
 Alpha  occ. eigenvalues --   -0.71733  -0.71260  -0.69135  -0.62444  -0.60949
 Alpha  occ. eigenvalues --   -0.57811  -0.56709  -0.52529  -0.50957  -0.49917
 Alpha  occ. eigenvalues --   -0.48344  -0.47079  -0.45892  -0.43469  -0.41698
 Alpha  occ. eigenvalues --   -0.41661  -0.39693  -0.39530  -0.38501  -0.37984
 Alpha  occ. eigenvalues --   -0.36736  -0.36585  -0.35631  -0.35160  -0.33643
 Alpha  occ. eigenvalues --   -0.32202  -0.31900  -0.31757  -0.29664  -0.28539
 Alpha  occ. eigenvalues --   -0.26717  -0.22680  -0.21985  -0.20158  -0.19781
 Alpha  occ. eigenvalues --   -0.18968  -0.18728  -0.09383
 Alpha virt. eigenvalues --   -0.02132  -0.00220   0.00207   0.01353   0.01402
 Alpha virt. eigenvalues --    0.01946   0.02346   0.02465   0.03747   0.04380
 Alpha virt. eigenvalues --    0.04856   0.04991   0.05643   0.06360   0.06506

  Beta  occ. eigenvalues --  -19.01453 -19.01453 -14.30169 -14.30169 -10.18292
  Beta  occ. eigenvalues --  -10.18292 -10.16601 -10.16600 -10.14540 -10.14540
  Beta  occ. eigenvalues --  -10.14479 -10.14479 -10.13435 -10.13435 -10.12842
  Beta  occ. eigenvalues --  -10.12841 -10.12731 -10.12730  -0.93840  -0.93523
  Beta  occ. eigenvalues --   -0.89419  -0.89403  -0.81356  -0.80432  -0.73767
  Beta  occ. eigenvalues --   -0.71733  -0.71260  -0.69135  -0.62444  -0.60949
  Beta  occ. eigenvalues --   -0.57811  -0.56709  -0.52529  -0.50957  -0.49917
  Beta  occ. eigenvalues --   -0.48344  -0.47079  -0.45892  -0.43469  -0.41698
  Beta  occ. eigenvalues --   -0.41661  -0.39693  -0.39530  -0.38501  -0.37984
  Beta  occ. eigenvalues --   -0.36736  -0.36585  -0.35631  -0.35160  -0.33643
  Beta  occ. eigenvalues --   -0.32202  -0.31900  -0.31757  -0.29664  -0.28539
  Beta  occ. eigenvalues --   -0.26717  -0.22680  -0.21985  -0.20158  -0.19781
  Beta  occ. eigenvalues --   -0.18968  -0.18728  -0.09383
  Beta virt. eigenvalues --   -0.02132  -0.00220   0.00207   0.01353   0.01402
  Beta virt. eigenvalues --    0.01946   0.02346   0.02465   0.03747   0.04380
  Beta virt. eigenvalues --    0.04856   0.04991   0.05643   0.06360   0.06506

 Mulliken charges and spin densities:
               1          2
     1  N   -0.409054  -0.000000
     2  C   -0.553644   0.000000
     3  C   -0.229726   0.000000
     4  C    0.031607  -0.000000
     5  C    0.181254   0.000000
     6  C   -0.714000   0.000000
     7  O   -0.656973  -0.000000
     8  C    0.461674  -0.000000
     9  C   -0.074580   0.000000
    10  C   -0.553744  -0.000000
    11  N   -0.409047   0.000000
    12  C   -0.229414   0.000000
    13  C    0.031627   0.000000
    14  C    0.181393  -0.000000
    15  C   -0.713936  -0.000000
    16  O   -0.656986  -0.000000
    17  C    0.461771  -0.000000
    18  C   -0.074111  -0.000000
    19  H    0.252613  -0.000000
    20  H    0.262322   0.000000
    21  H    0.173863   0.000000
    22  H    0.145485   0.000000
    23  H    0.128682  -0.000000
    24  H    0.252617   0.000000
    25  H    0.262311  -0.000000
    26  H    0.173857   0.000000
    27  H    0.145480   0.000000
    28  H    0.128660   0.000000
 Sum of Mulliken charges =  -2.00000   0.00000

 Dipole moment (field-independent basis, Debye):
    X=              0.0009    Y=             -0.0009    Z=              3.0058  Tot=              3.0058
 Quadrupole moment (field-independent basis, Debye-Ang):
   XX=           -125.3954   YY=           -162.8641   ZZ=           -119.4963
   XY=             -2.5755   XZ=              0.0006   YZ=              0.0000

 Normal termination of Gaussian 16 at Sun Jan 14 01:30:46 2024.
