 Q-Chem 5.4, Q-Chem, Inc., Pleasanton, CA (2021)
 Q-Chem 5.4.0 for Intel X86 EM64T Linux

User input:
--------------------------------------------------------------
$molecule
0 1
C                  5.7684430000     -5.7169190000      0.4459840000
C                  5.9060580000     -5.8611270000     -0.9307010000
C                  5.2295100000     -4.9992180000     -1.7979610000
C                  4.9516710000     -4.7078450000      0.9619180000
C                  4.2738090000     -3.8432260000      0.0928330000
C                  4.4156190000     -3.9924210000     -1.2890420000
C                  4.8007930000     -4.5539360000      2.4352140000
C                  3.9143230000     -3.4702610000      2.9616730000
C                  3.2744870000     -2.6162770000      2.1231670000
C                  3.4047780000     -2.7624810000      0.6377100000
O                  5.3876670000     -5.2956840000      3.2090780000
O                  2.8064760000     -2.0057620000     -0.1126370000
H                  6.5396620000     -6.6443670000     -1.3311750000
C                  2.3692160000     -1.4993840000      2.5786710000
H                  5.3390700000     -5.1147320000     -2.8703250000
C                  3.8213740000     -3.4246580000      4.4610170000
C                  0.8947240000     -1.9378900000      2.7067790000
C                 -0.0280760000     -0.7889530000      3.1265720000
C                 -1.4972460000     -1.2065800000      3.2564720000
H                  6.2831040000     -6.3734930000      1.1365630000
H                  3.8828850000     -3.3132350000     -1.9430010000
H                  2.4270960000     -0.6921350000      1.8456210000
H                  2.7159730000     -1.0984240000      3.5336810000
H                  3.5392540000     -4.4067780000      4.8483590000
H                  3.1031420000     -2.6877520000      4.8124260000
H                  4.8005760000     -3.2015620000      4.8955050000
H                  0.8194950000     -2.7553860000      3.4337450000
H                  0.5604980000     -2.3425690000      1.7457860000
H                  0.0548010000      0.0242670000      2.3948180000
H                  0.3171360000     -0.3754630000      4.0833230000
H                 -1.5790170000     -2.0233160000      3.9854020000
H                 -1.8409920000     -1.6182740000      2.2990000000
C                 -2.4248970000     -0.0604910000      3.6759940000
C                 -3.8949510000     -0.4759580000      3.8026250000
C                 -4.8236030000      0.6695760000      4.2212490000
C                 -6.2937320000      0.2547160000      4.3468890000
C                 -7.2236720000      1.3993070000      4.7653360000
C                 -8.6901050000      0.9749490000      4.8877460000
H                 -2.3414820000      0.7565780000      2.9477980000
H                 -2.0814720000      0.3508740000      4.6341240000
H                 -3.9783810000     -1.2934090000      4.5306070000
H                 -4.2378280000     -0.8874110000      2.8444480000
H                 -4.7397800000      1.4870940000      3.4934080000
H                 -4.4809960000      1.0809530000      5.1796930000
H                 -6.3786920000     -0.5628700000      5.0748010000
H                 -6.6373010000     -0.1564790000      3.3885920000
H                 -7.1396570000      2.2160910000      4.0380390000
H                 -6.8814090000      1.8099050000      5.7231760000
H                 -9.0719840000      0.5924410000      3.9358110000
H                 -9.3257220000      1.8129970000      5.1872170000
H                 -8.8118360000      0.1830080000      5.6336430000
$end

$rem
BASIS  =  6-311++G(d,p)
GUI  =  2
JOB_TYPE  =  SP
METHOD  =  B3LYP
SCF_CONVERGENCE  = 8
SOLVENT_METHOD = sm12
$end

$smx
solvent dimethylformamide
charges CM5
$end

--------------------------------------------------------------

             Standard Nuclear Orientation (Angstroms)
    I     Atom           X                Y                Z
 ----------------------------------------------------------------
    1      C       5.7684430000    -5.7169190000     0.4459840000
    2      C       5.9060580000    -5.8611270000    -0.9307010000
    3      C       5.2295100000    -4.9992180000    -1.7979610000
    4      C       4.9516710000    -4.7078450000     0.9619180000
    5      C       4.2738090000    -3.8432260000     0.0928330000
    6      C       4.4156190000    -3.9924210000    -1.2890420000
    7      C       4.8007930000    -4.5539360000     2.4352140000
    8      C       3.9143230000    -3.4702610000     2.9616730000
    9      C       3.2744870000    -2.6162770000     2.1231670000
   10      C       3.4047780000    -2.7624810000     0.6377100000
   11      O       5.3876670000    -5.2956840000     3.2090780000
   12      O       2.8064760000    -2.0057620000    -0.1126370000
   13      H       6.5396620000    -6.6443670000    -1.3311750000
   14      C       2.3692160000    -1.4993840000     2.5786710000
   15      H       5.3390700000    -5.1147320000    -2.8703250000
   16      C       3.8213740000    -3.4246580000     4.4610170000
   17      C       0.8947240000    -1.9378900000     2.7067790000
   18      C      -0.0280760000    -0.7889530000     3.1265720000
   19      C      -1.4972460000    -1.2065800000     3.2564720000
   20      H       6.2831040000    -6.3734930000     1.1365630000
   21      H       3.8828850000    -3.3132350000    -1.9430010000
   22      H       2.4270960000    -0.6921350000     1.8456210000
   23      H       2.7159730000    -1.0984240000     3.5336810000
   24      H       3.5392540000    -4.4067780000     4.8483590000
   25      H       3.1031420000    -2.6877520000     4.8124260000
   26      H       4.8005760000    -3.2015620000     4.8955050000
   27      H       0.8194950000    -2.7553860000     3.4337450000
   28      H       0.5604980000    -2.3425690000     1.7457860000
   29      H       0.0548010000     0.0242670000     2.3948180000
   30      H       0.3171360000    -0.3754630000     4.0833230000
   31      H      -1.5790170000    -2.0233160000     3.9854020000
   32      H      -1.8409920000    -1.6182740000     2.2990000000
   33      C      -2.4248970000    -0.0604910000     3.6759940000
   34      C      -3.8949510000    -0.4759580000     3.8026250000
   35      C      -4.8236030000     0.6695760000     4.2212490000
   36      C      -6.2937320000     0.2547160000     4.3468890000
   37      C      -7.2236720000     1.3993070000     4.7653360000
   38      C      -8.6901050000     0.9749490000     4.8877460000
   39      H      -2.3414820000     0.7565780000     2.9477980000
   40      H      -2.0814720000     0.3508740000     4.6341240000
   41      H      -3.9783810000    -1.2934090000     4.5306070000
   42      H      -4.2378280000    -0.8874110000     2.8444480000
   43      H      -4.7397800000     1.4870940000     3.4934080000
   44      H      -4.4809960000     1.0809530000     5.1796930000
   45      H      -6.3786920000    -0.5628700000     5.0748010000
   46      H      -6.6373010000    -0.1564790000     3.3885920000
   47      H      -7.1396570000     2.2160910000     4.0380390000
   48      H      -6.8814090000     1.8099050000     5.7231760000
   49      H      -9.0719840000     0.5924410000     3.9358110000
   50      H      -9.3257220000     1.8129970000     5.1872170000
   51      H      -8.8118360000     0.1830080000     5.6336430000
 ----------------------------------------------------------------

   15    -967.8359406170      6.33e-09  Convergence criterion met
 Total energy in the final basis set =     -967.8586269620

                    Orbital Energies (a.u.)
 --------------------------------------------------------------

 Alpha MOs
 -- Occupied --
-19.1285 -19.1281 -10.2772 -10.2764 -10.2112 -10.2087 -10.2046 -10.2041
-10.1959 -10.1955 -10.1951 -10.1950 -10.1747 -10.1706 -10.1694 -10.1654
-10.1636 -10.1634 -10.1628 -10.1624 -10.1623 -10.1620 -10.1576  -1.0625
 -1.0606  -0.8875  -0.8511  -0.8156  -0.8022  -0.7868  -0.7752  -0.7738
 -0.7485  -0.7225  -0.6969  -0.6771  -0.6595  -0.6319  -0.6181  -0.5992
 -0.5844  -0.5809  -0.5768  -0.5751  -0.5483  -0.5165  -0.4963  -0.4886
 -0.4782  -0.4702  -0.4592  -0.4555  -0.4536  -0.4490  -0.4462  -0.4368
 -0.4297  -0.4254  -0.4221  -0.4205  -0.4085  -0.4062  -0.3971  -0.3960
 -0.3911  -0.3897  -0.3750  -0.3742  -0.3673  -0.3656  -0.3599  -0.3478
 -0.3456  -0.3408  -0.3322  -0.3293  -0.3261  -0.3242  -0.3234  -0.3061
 -0.2872  -0.2842  -0.2761  -0.2689  -0.2679

          Ground-State Mulliken Net Atomic Charges

     Atom                 Charge (a.u.)
  ----------------------------------------
      1 C                     0.103075
      2 C                     0.219250
      3 C                     0.280859
      4 C                    -0.536924
      5 C                    -0.674277
      6 C                     0.075442
      7 C                    -1.129178
      8 C                     0.713656
      9 C                     1.321668
     10 C                    -1.584189
     11 O                    -0.279506
     12 O                    -0.260136
     13 H                     0.316994
     14 C                    -0.212544
     15 H                     0.315420
     16 C                     0.159895
     17 C                    -0.739092
     18 C                     0.133293
     19 C                     0.071733
     20 H                     0.189199
     21 H                     0.188882
     22 H                     0.181665
     23 H                     0.278993
     24 H                     0.171941
     25 H                     0.254287
     26 H                     0.198885
     27 H                     0.131567
     28 H                     0.121052
     29 H                     0.096717
     30 H                     0.118786
     31 H                     0.114458
     32 H                     0.103128
     33 C                     0.121904
     34 C                    -0.121318
     35 C                    -0.348831
     36 C                    -0.632479
     37 C                    -0.374290
     38 C                    -0.684991
     39 H                     0.112335
     40 H                     0.115560
     41 H                     0.115134
     42 H                     0.111549
     43 H                     0.112403
     44 H                     0.113737
     45 H                     0.105680
     46 H                     0.105305
     47 H                     0.129415
     48 H                     0.130020
     49 H                     0.141541
     50 H                     0.160133
     51 H                     0.142195
  ----------------------------------------
  Sum of atomic charges =     0.000000

                    Cartesian Multipole Moments
 -----------------------------------------------------------------
    Charge (ESU x 10^10)
                -0.0000
    Dipole Moment (Debye)
         X       0.0435      Y      -0.2415      Z      -0.5193
       Tot       0.5744
    Quadrupole Moments (Debye-Ang)
        XX    -143.5794     XY      -2.8545     YY    -142.1652
        XZ     -12.4598     YZ      14.3448     ZZ    -135.4243

 Total job time:  2255.46s(wall), 17144.67s(cpu)
        *  Thank you very much for using Q-Chem.  Have a nice day.  *
