 Gaussian 16, Revision A.03,
 Gaussian 16:  ES64L-G16RevA.03 25-Dec-2016

 ----------------------------------------------------------------------
 #P UB3LYP/6-311++G(d,p) nosym opt freq SCRF=(PCM,Solvent=n,n-DiMethylF
 ormamide)
 ----------------------------------------------------------------------

 --------
 Oxidized
 --------
 Symbolic Z-matrix:
 Charge =  0 Multiplicity = 1

 SCF Done:  E(UB3LYP) =  -839.474446043     A.U. after   15 cycles
 SCF Done:  E(UB3LYP) =  -839.474531458     A.U. after   11 cycles
 SCF Done:  E(UB3LYP) =  -839.474540983     A.U. after   10 cycles
 SCF Done:  E(UB3LYP) =  -839.474541639     A.U. after   10 cycles
 SCF Done:  E(UB3LYP) =  -839.474541933     A.U. after    8 cycles
 Optimization completed.
    -- Stationary point found.
 Normal termination of Gaussian 16 at Sat Feb 10 22:21:51 2024.

 ----------------------------------------------------------------------
 #P Geom=AllCheck Guess=TCheck SCRF=Check GenChk UB3LYP/6-311++G(d,p) F
 req
 ----------------------------------------------------------------------

 Structure from the checkpoint file:  "184.chk"
 --------
 Oxidized
 --------
 Charge =  0 Multiplicity = 1

                          Input orientation:
 ---------------------------------------------------------------------
 Center     Atomic      Atomic             Coordinates (Angstroms)
 Number     Number       Type             X           Y           Z
 ---------------------------------------------------------------------
      1          6           0        4.877502   -2.870914   -0.348625
      2          6           0        5.612390   -1.977898   -1.120506
      3          6           0        5.032931   -0.779319   -1.544122
      4          6           0        3.557494   -2.573305    0.006089
      5          6           0        2.971968   -1.365054   -0.419954
      6          6           0        3.720531   -0.475799   -1.195163
      7          6           0        2.790376   -3.536438    0.827798
      8          6           0        1.408059   -3.199898    1.184799
      9          6           0        0.807718   -1.986327    0.761462
     10          6           0        1.565749   -1.015219   -0.059612
     11          6           0        0.664541   -4.099635    1.963361
     12          6           0       -0.668516   -3.795335    2.318616
     13          6           0       -0.506316   -1.707338    1.122970
     14          6           0       -1.242437   -2.604907    1.896915
     15          8           0        3.304330   -4.602345    1.205638
     16          8           0        1.065246    0.040232   -0.435463
     17          8           0        1.142086   -5.274669    2.414843
     18          1           0        5.313240   -3.803253   -0.013213
     19          1           0        6.634476   -2.212872   -1.392701
     20          1           0        5.605858   -0.083600   -2.145779
     21          1           0        3.260824    0.449764   -1.517280
     22          1           0        2.075196   -5.347393    2.089578
     23          8           0       -1.379383   -4.667653    3.069601
     24          1           0       -0.954985   -0.779088    0.794751
     25          1           0       -2.265713   -2.388059    2.178637
     26          1           0       -0.824923   -5.437247    3.268427
 ---------------------------------------------------------------------

 SCF Done:  E(UB3LYP) =  -839.474541933     A.U. after    1 cycles

 Alpha  occ. eigenvalues --  -19.17929 -19.17515 -19.14536 -19.12817 -10.29468
 Alpha  occ. eigenvalues --  -10.28253 -10.27174 -10.26598 -10.21459 -10.21338
 Alpha  occ. eigenvalues --  -10.21198 -10.20776 -10.20190 -10.20164 -10.20159
 Alpha  occ. eigenvalues --  -10.20060 -10.20046 -10.19994  -1.10988  -1.08553
 Alpha  occ. eigenvalues --   -1.06515  -1.06053  -0.89791  -0.88340  -0.81736
 Alpha  occ. eigenvalues --   -0.78320  -0.77730  -0.77273  -0.70026  -0.68086
 Alpha  occ. eigenvalues --   -0.66106  -0.63557  -0.60360  -0.58701  -0.56816
 Alpha  occ. eigenvalues --   -0.55134  -0.53358  -0.51802  -0.50129  -0.48361
 Alpha  occ. eigenvalues --   -0.47496  -0.46824  -0.46440  -0.45500  -0.45144
 Alpha  occ. eigenvalues --   -0.44488  -0.43515  -0.42455  -0.42426  -0.39929
 Alpha  occ. eigenvalues --   -0.39751  -0.38987  -0.38473  -0.38339  -0.37140
 Alpha  occ. eigenvalues --   -0.35205  -0.29936  -0.29201  -0.28187  -0.27945
 Alpha  occ. eigenvalues --   -0.27343  -0.24451
 Alpha virt. eigenvalues --   -0.12349  -0.07426  -0.03770  -0.02225  -0.00942
 Alpha virt. eigenvalues --   -0.00156   0.00611   0.01655   0.01886   0.03022
 Alpha virt. eigenvalues --    0.03705   0.03730   0.03951   0.04198   0.04527

  Beta  occ. eigenvalues --  -19.17929 -19.17515 -19.14536 -19.12817 -10.29468
  Beta  occ. eigenvalues --  -10.28253 -10.27174 -10.26598 -10.21459 -10.21338
  Beta  occ. eigenvalues --  -10.21198 -10.20776 -10.20190 -10.20164 -10.20159
  Beta  occ. eigenvalues --  -10.20060 -10.20046 -10.19994  -1.10988  -1.08553
  Beta  occ. eigenvalues --   -1.06515  -1.06053  -0.89791  -0.88340  -0.81736
  Beta  occ. eigenvalues --   -0.78320  -0.77730  -0.77273  -0.70026  -0.68086
  Beta  occ. eigenvalues --   -0.66106  -0.63557  -0.60360  -0.58701  -0.56816
  Beta  occ. eigenvalues --   -0.55134  -0.53358  -0.51802  -0.50129  -0.48361
  Beta  occ. eigenvalues --   -0.47496  -0.46824  -0.46440  -0.45500  -0.45144
  Beta  occ. eigenvalues --   -0.44488  -0.43515  -0.42455  -0.42426  -0.39929
  Beta  occ. eigenvalues --   -0.39751  -0.38987  -0.38473  -0.38339  -0.37140
  Beta  occ. eigenvalues --   -0.35205  -0.29936  -0.29201  -0.28187  -0.27945
  Beta  occ. eigenvalues --   -0.27343  -0.24451
  Beta virt. eigenvalues --   -0.12349  -0.07426  -0.03770  -0.02225  -0.00942
  Beta virt. eigenvalues --   -0.00156   0.00611   0.01655   0.01886   0.03022
  Beta virt. eigenvalues --    0.03705   0.03730   0.03951   0.04198   0.04527

 Mulliken charges and spin densities:
               1          2
     1  C    0.201714   0.000000
     2  C   -0.425250  -0.000000
     3  C   -0.433610   0.000000
     4  C    0.214355   0.000000
     5  C   -0.113166  -0.000000
     6  C    0.157827   0.000000
     7  C   -0.460238   0.000000
     8  C    0.602305   0.000000
     9  C    0.459236  -0.000000
    10  C   -0.518958   0.000000
    11  C   -0.102085   0.000000
    12  C   -0.360836  -0.000000
    13  C    0.082724  -0.000000
    14  C    0.033163   0.000000
    15  O   -0.313015   0.000000
    16  O   -0.293091   0.000000
    17  O   -0.368351   0.000000
    18  H    0.192140  -0.000000
    19  H    0.208471   0.000000
    20  H    0.208624   0.000000
    21  H    0.185869  -0.000000
    22  H    0.362642  -0.000000
    23  O   -0.261899   0.000000
    24  H    0.186507   0.000000
    25  H    0.237707   0.000000
    26  H    0.317214  -0.000000
 Sum of Mulliken charges =  -0.00000  -0.00000

 Dipole moment (field-independent basis, Debye):
    X=              2.6327    Y=             -0.7218    Z=             -0.6480  Tot=              2.8057
 Quadrupole moment (field-independent basis, Debye-Ang):
   XX=            -79.7811   YY=           -104.9852   ZZ=           -101.9007
   XY=             -1.6714   XZ=             -8.9625   YZ=              0.6622

  Exact polarizability: 329.268   5.858 274.530 -87.747 -89.929 195.831
 Approx polarizability: 369.882 -11.979 352.473 -85.734-113.878 229.041

                      1                      2                      3
                      A                      A                      A
 Frequencies --     40.8431                88.5548               115.4257
 Red. masses --      7.8237                 5.5510                 6.0995
 Frc consts  --      0.0077                 0.0256                 0.0479
 IR Inten    --      5.4364                 0.6083                 1.5920

                      4                      5                      6
                      A                      A                      A
 Frequencies --    133.7244               179.2515               195.9426
 Red. masses --      9.4989                 6.2150                 5.8658
 Frc consts  --      0.1001                 0.1177                 0.1327
 IR Inten    --      0.0696                 0.4286                 1.2697

                      7                      8                      9
                      A                      A                      A
 Frequencies --    251.7933               289.2885               326.2977
 Red. masses --      5.9360                 6.2065                 7.6427
 Frc consts  --      0.2217                 0.3060                 0.4794
 IR Inten    --      0.6500                 1.9925                 0.9547

                     10                     11                     12
                      A                      A                      A
 Frequencies --    332.2753               343.1234               392.2161
 Red. masses --      6.1199                 6.1967                 8.2518
 Frc consts  --      0.3981                 0.4298                 0.7479
 IR Inten    --      0.7336                10.5722                14.9428

                     13                     14                     15
                      A                      A                      A
 Frequencies --    421.0278               422.5715               423.1010
 Red. masses --      1.0945                 3.3372                12.0840
 Frc consts  --      0.1143                 0.3511                 1.2745
 IR Inten    --    214.0997                 1.5376                45.5510

                     16                     17                     18
                      A                      A                      A
 Frequencies --    452.6105               473.5337               486.5491
 Red. masses --      5.1603                11.0627                 6.8093
 Frc consts  --      0.6228                 1.4615                 0.9497
 IR Inten    --      0.0722                 0.8915                23.7451

                     19                     20                     21
                      A                      A                      A
 Frequencies --    497.7315               575.1234               582.8487
 Red. masses --      4.2939                 5.0001                 7.8808
 Frc consts  --      0.6268                 0.9744                 1.5774
 IR Inten    --      0.0779                 0.2969                 9.9810

                     22                     23                     24
                      A                      A                      A
 Frequencies --    626.0856               669.5444               681.8379
 Red. masses --      6.5591                 6.8763                 4.7736
 Frc consts  --      1.5148                 1.8162                 1.3075
 IR Inten    --     29.6614                35.6000                 7.1682

                     25                     26                     27
                      A                      A                      A
 Frequencies --    696.6411               716.6092               731.3371
 Red. masses --      6.3036                 5.6112                 2.1028
 Frc consts  --      1.8024                 1.6977                 0.6626
 IR Inten    --      5.6427                 3.5306                57.9845

                     28                     29                     30
                      A                      A                      A
 Frequencies --    746.2137               766.1924               787.7448
 Red. masses --      1.1307                 7.2833                 4.8141
 Frc consts  --      0.3710                 2.5191                 1.7601
 IR Inten    --    205.6429                14.6214                 0.2572

                     31                     32                     33
                      A                      A                      A
 Frequencies --    809.9128               840.1185               859.0690
 Red. masses --      1.9083                 7.3752                 1.5648
 Frc consts  --      0.7375                 3.0670                 0.6804
 IR Inten    --      3.6529               106.7138                36.3209

                     34                     35                     36
                      A                      A                      A
 Frequencies --    905.3701               914.7169               974.6631
 Red. masses --      7.2992                 1.3991                 1.3224
 Frc consts  --      3.5252                 0.6897                 0.7402
 IR Inten    --     20.2120                 0.2596                 0.0028

                     37                     38                     39
                      A                      A                      A
 Frequencies --   1002.4910              1024.1984              1024.3318
 Red. masses --      1.3881                 4.5768                 1.3559
 Frc consts  --      0.8219                 2.8286                 0.8382
 IR Inten    --      2.0103               135.3168                 3.1899

                     40                     41                     42
                      A                      A                      A
 Frequencies --   1043.4408              1064.2063              1112.9856
 Red. masses --      3.2287                 1.9426                 2.2162
 Frc consts  --      2.0712                 1.2962                 1.6175
 IR Inten    --     24.2142                14.4631                 1.6600

                     43                     44                     45
                      A                      A                      A
 Frequencies --   1169.0632              1178.8933              1201.5692
 Red. masses --      1.6704                 1.1501                 1.8425
 Frc consts  --      1.3451                 0.9417                 1.5674
 IR Inten    --      1.4395                29.7849               107.6045

                     46                     47                     48
                      A                      A                      A
 Frequencies --   1211.5172              1231.8243              1276.5691
 Red. masses --      1.7780                 2.0312                 2.3745
 Frc consts  --      1.5376                 1.8159                 2.2799
 IR Inten    --    166.9187                26.1763               877.0516

                     49                     50                     51
                      A                      A                      A
 Frequencies --   1290.2185              1312.5602              1339.4405
 Red. masses --      4.6627                 2.5293                 3.6921
 Frc consts  --      4.5731                 2.5674                 3.9027
 IR Inten    --   1505.1237               231.8334                78.9221

                     52                     53                     54
                      A                      A                      A
 Frequencies --   1355.9388              1369.2205              1426.6818
 Red. masses --      5.0726                 2.8385                 3.1318
 Frc consts  --      5.4949                 3.1353                 3.7557
 IR Inten    --     89.1647               276.7567                25.9690

                     55                     56                     57
                      A                      A                      A
 Frequencies --   1473.2533              1481.0495              1502.2332
 Red. masses --      3.4177                 2.5758                 2.8980
 Frc consts  --      4.3706                 3.3289                 3.8532
 IR Inten    --    538.4233                72.8091                 7.7985

                     58                     59                     60
                      A                      A                      A
 Frequencies --   1510.3242              1602.0058              1607.9182
 Red. masses --      3.7807                 7.0280                 4.3229
 Frc consts  --      5.0811                10.6270                 6.5850
 IR Inten    --     15.5070                27.5712               542.6436

                     61                     62                     63
                      A                      A                      A
 Frequencies --   1618.5831              1624.5937              1659.6037
 Red. masses --      6.1112                 5.9918                 8.3244
 Frc consts  --      9.4329                 9.3175                13.5086
 IR Inten    --     76.0829                59.3667               341.3467

                     64                     65                     66
                      A                      A                      A
 Frequencies --   1690.9777              3179.8884              3192.1838
 Red. masses --     10.7085                 1.0876                 1.0916
 Frc consts  --     18.0408                 6.4793                 6.5538
 IR Inten    --    281.1354                 3.3370                12.7920

                     67                     68                     69
                      A                      A                      A
 Frequencies --   3192.9009              3204.7232              3207.8338
 Red. masses --      1.0901                 1.0927                 1.0952
 Frc consts  --      6.5476                 6.6117                 6.6402
 IR Inten    --      6.0285                 3.5920                19.0408

                     70                     71                     72
                      A                      A                      A
 Frequencies --   3210.4929              3279.9036              3744.6876
 Red. masses --      1.0933                 1.0681                 1.0656
 Frc consts  --      6.6394                 6.7697                 8.8043
 IR Inten    --      2.7574               556.0453               244.7683

 - Thermochemistry -
 -------------------
 Temperature   298.150 Kelvin.  Pressure   1.00000 Atm.
 Atom     1 has atomic number  6 and mass  12.00000

 Molecular mass:   240.04226 amu.
 Principal axes and moments of inertia in atomic units:
                           1         2         3
     Eigenvalues --  2001.540205710.794097712.33341
           X            0.75708  -0.56687   0.32480
           Y            0.40301   0.79650   0.45075
           Z           -0.51422  -0.21036   0.83146
 This molecule is an asymmetric top.
 Rotational symmetry number  1.
 Warning -- assumption of classical behavior for rotation
           may cause significant error
 Rotational temperatures (Kelvin)      0.04327     0.01517     0.01123
 Rotational constants (GHZ):           0.90168     0.31602     0.23401
 Zero-point vibrational energy     492671.2 (Joules/Mol)
                                  117.75125 (Kcal/Mol)
 Warning -- explicit consideration of  21 degrees of freedom as
           vibrations may cause significant error
 Vibrational temperatures:     58.76   127.41   166.07   192.40   257.90
          (Kelvin)            281.92   362.27   416.22   469.47   478.07
                              493.68   564.31   605.77   607.99   608.75
                              651.21   681.31   700.04   716.12   827.47
                              838.59   900.80   963.33   981.01  1002.31
                             1031.04  1052.23  1073.64  1102.38  1133.39
                             1165.28  1208.74  1236.01  1302.63  1316.07
                             1402.32  1442.36  1473.59  1473.79  1501.28
                             1531.16  1601.34  1682.02  1696.16  1728.79
                             1743.10  1772.32  1836.70  1856.34  1888.48
                             1927.16  1950.89  1970.00  2052.68  2119.68
                             2130.90  2161.38  2173.02  2304.93  2313.44
                             2328.78  2337.43  2387.80  2432.94  4575.15
                             4592.84  4593.87  4610.88  4615.36  4619.18
                             4719.05  5387.77

 Zero-point correction=                           0.187649 (Hartree/Particle)
 Thermal correction to Energy=                    0.200886
 Thermal correction to Enthalpy=                  0.201830
 Thermal correction to Gibbs Free Energy=         0.147867
 Sum of electronic and zero-point Energies=           -839.286893
 Sum of electronic and thermal Energies=              -839.273656
 Sum of electronic and thermal Enthalpies=            -839.272712
 Sum of electronic and thermal Free Energies=         -839.326675

                     E (Thermal)             CV                S
                      KCal/Mol        Cal/Mol-Kelvin    Cal/Mol-Kelvin
 Total                  126.058             53.799            113.575
 Electronic               0.000              0.000              0.000
 Translational            0.889              2.981             42.328
 Rotational               0.889              2.981             32.844
 Vibrational            124.280             47.838             38.403
 Vibration     1          0.594              1.981              5.218
 Vibration     2          0.601              1.957              3.692
 Vibration     3          0.608              1.937              3.176
 Vibration     4          0.613              1.920              2.892
 Vibration     5          0.629              1.868              2.336
 Vibration     6          0.636              1.846              2.171
 Vibration     7          0.664              1.760              1.718
 Vibration     8          0.686              1.694              1.478
 Vibration     9          0.710              1.623              1.278
 Vibration    10          0.714              1.611              1.249
 Vibration    11          0.722              1.589              1.198
 Vibration    12          0.760              1.487              0.992
 Vibration    13          0.784              1.425              0.888
 Vibration    14          0.785              1.421              0.883
 Vibration    15          0.785              1.420              0.881
 Vibration    16          0.811              1.355              0.788
 Vibration    17          0.830              1.309              0.728
 Vibration    18          0.843              1.280              0.693
 Vibration    19          0.853              1.255              0.664
 Vibration    20          0.931              1.085              0.494
 Vibration    21          0.940              1.068              0.480

 Optimization completed.
    -- Stationary point found.
 Normal termination of Gaussian 16 at Sat Feb 10 23:20:26 2024.
