 Q-Chem 5.4, Q-Chem, Inc., Pleasanton, CA (2021)
 Q-Chem 5.4.0 for Intel X86 EM64T Linux

User input:
--------------------------------------------------------------
$molecule
-1 2
C                 -0.0897200000     -0.7941340000      1.4633420000
C                 -0.1210210000     -0.7956000000     -0.0010020000
C                 -0.6620710000     -1.8610170000     -0.6936480000
C                 -1.2329520000     -3.0207850000     -0.0523650000
C                 -1.1913990000     -3.0078940000      1.3990240000
C                 -0.6520820000     -1.9697390000      2.1002270000
O                  0.4123930000      0.1481760000      2.1276760000
O                 -1.7304550000     -3.9809420000     -0.7063800000
C                  0.5468670000      0.3031100000     -0.7244200000
H                 -1.6144170000     -3.8707140000      1.9061850000
H                 -0.7004850000     -1.8506410000     -1.7790270000
H                 -0.6270160000     -1.9742160000      3.1860580000
C                  0.4456850000      1.6728530000     -0.4118040000
C                  1.2002840000      2.6510120000     -1.0561110000
C                  2.0656590000      2.2975570000     -2.0831690000
C                  2.1712680000      0.9541430000     -2.4461090000
C                  1.4381270000     -0.0120840000     -1.7690670000
N                 -0.5634960000      2.1911540000      0.5392270000
O                 -0.2698180000      3.1913010000      1.1877120000
O                 -1.6609540000      1.6549980000      0.5545290000
H                  1.0834530000      3.6813410000     -0.7478560000
H                  2.6458600000      3.0591460000     -2.5917860000
H                  2.8441180000      0.6552670000     -3.2433150000
H                  1.5690190000     -1.0583440000     -2.0176930000
$end
$rem
MAX_SCF_CYCLES=200
BASIS  =  6-311++G(d,p)
GUI  =  2
JOB_TYPE  =  SP
METHOD  =  B3LYP
SOLVENT_METHOD = PCM
$end
$pcm
theory = CPCM
$end
$solvent
dielectric 37.219
opticaldielectric 1.43
$end

--------------------------------------------------------------

             Standard Nuclear Orientation (Angstroms)
    I     Atom           X                Y                Z
 ----------------------------------------------------------------
    1      C      -0.0897200000    -0.7941340000     1.4633420000
    2      C      -0.1210210000    -0.7956000000    -0.0010020000
    3      C      -0.6620710000    -1.8610170000    -0.6936480000
    4      C      -1.2329520000    -3.0207850000    -0.0523650000
    5      C      -1.1913990000    -3.0078940000     1.3990240000
    6      C      -0.6520820000    -1.9697390000     2.1002270000
    7      O       0.4123930000     0.1481760000     2.1276760000
    8      O      -1.7304550000    -3.9809420000    -0.7063800000
    9      C       0.5468670000     0.3031100000    -0.7244200000
   10      H      -1.6144170000    -3.8707140000     1.9061850000
   11      H      -0.7004850000    -1.8506410000    -1.7790270000
   12      H      -0.6270160000    -1.9742160000     3.1860580000
   13      C       0.4456850000     1.6728530000    -0.4118040000
   14      C       1.2002840000     2.6510120000    -1.0561110000
   15      C       2.0656590000     2.2975570000    -2.0831690000
   16      C       2.1712680000     0.9541430000    -2.4461090000
   17      C       1.4381270000    -0.0120840000    -1.7690670000
   18      N      -0.5634960000     2.1911540000     0.5392270000
   19      O      -0.2698180000     3.1913010000     1.1877120000
   20      O      -1.6609540000     1.6549980000     0.5545290000
   21      H       1.0834530000     3.6813410000    -0.7478560000
   22      H       2.6458600000     3.0591460000    -2.5917860000
   23      H       2.8441180000     0.6552670000    -3.2433150000
   24      H       1.5690190000    -1.0583440000    -2.0176930000
 ----------------------------------------------------------------

   10    -817.4058860607      8.78e-06  Convergence criterion met
 Total energy in the final basis set =     -817.4058860607

                    Orbital Energies (a.u.)
 --------------------------------------------------------------

 Alpha MOs
 -- Occupied --
-19.1704 -19.1686 -19.0857 -19.0833 -14.5613 -10.2394 -10.2307 -10.2254
-10.2118 -10.1967 -10.1906 -10.1888 -10.1885 -10.1864 -10.1694 -10.1689
-10.1682  -1.2462  -1.0727  -1.0119  -1.0038  -0.8928  -0.8334  -0.8077
 -0.7869  -0.7391  -0.7045  -0.6855  -0.6387  -0.6079  -0.5978  -0.5791
 -0.5520  -0.5454  -0.5310  -0.5050  -0.4843  -0.4744  -0.4659  -0.4609
 -0.4428  -0.4271  -0.4165  -0.4112  -0.3937  -0.3894  -0.3847  -0.3789
 -0.3669  -0.3629  -0.3307  -0.3285  -0.3184  -0.2950  -0.2810  -0.2762
 -0.2513  -0.2503  -0.2452  -0.1690

 Beta MOs
 -- Occupied --
-19.1704 -19.1686 -19.0793 -19.0764 -14.5613 -10.2392 -10.2292 -10.2240
-10.2120 -10.1968 -10.1906 -10.1886 -10.1883 -10.1851 -10.1682 -10.1679
-10.1673  -1.2462  -1.0726  -1.0006  -0.9915  -0.8923  -0.8280  -0.8074
 -0.7848  -0.7372  -0.7026  -0.6769  -0.6367  -0.6070  -0.5949  -0.5772
 -0.5508  -0.5447  -0.5308  -0.5040  -0.4827  -0.4706  -0.4646  -0.4591
 -0.4413  -0.4257  -0.4058  -0.4019  -0.3893  -0.3858  -0.3793  -0.3664
 -0.3609  -0.3535  -0.3294  -0.3279  -0.3178  -0.2859  -0.2756  -0.2567
 -0.2451  -0.2424  -0.2388

          Ground-State Mulliken Net Atomic Charges

     Atom                 Charge (a.u.)    Spin (a.u.)
  --------------------------------------------------------
      1 C                    -1.429298       0.077160
      2 C                     1.982503       0.089842
      3 C                    -0.275324       0.060365
      4 C                    -0.325156       0.131520
      5 C                    -0.032995       0.067722
      6 C                    -0.107374       0.070835
      7 O                    -0.432174       0.236020
      8 O                    -0.520860       0.245660
      9 C                     1.125109       0.007497
     10 H                     0.209579      -0.005577
     11 H                     0.222558      -0.008429
     12 H                     0.208381      -0.007283
     13 C                    -0.615776       0.026474
     14 C                    -0.146530      -0.005856
     15 C                    -0.421409       0.013492
     16 C                    -0.431493      -0.006603
     17 C                    -0.688002       0.007878
     18 N                    -0.128277       0.000664
     19 O                    -0.043917       0.000040
     20 O                    -0.063308       0.000437
     21 H                     0.257037       0.000264
     22 H                     0.219374      -0.000894
     23 H                     0.220692       0.000565
     24 H                     0.216660      -0.001790
  --------------------------------------------------------
  Sum of atomic charges =    -1.000000

                    Cartesian Multipole Moments
 -----------------------------------------------------------------
    Charge (ESU x 10^10)
                -4.8032
    Dipole Moment (Debye)
         X       6.8974      Y       6.1963      Z      -6.4420
       Tot      11.2902
    Quadrupole Moments (Debye-Ang)
        XX    -109.2158     XY     -10.4830     YY    -142.6385
        XZ     -11.8204     YZ     -20.4039     ZZ    -106.5280

 Total job time:  56.79s(wall), 403.80s(cpu)
        *  Thank you very much for using Q-Chem.  Have a nice day.  *
