 Gaussian 16, Revision A.03,
 Gaussian 16:  ES64L-G16RevA.03 25-Dec-2016

 ----------------------------------------------------------------
 #P UB3LYP/6-311++G(d,p) SCRF=(PCM,Solvent=n,n-DiMethylFormamide)
 ----------------------------------------------------------------

 -------
 Reduced
 -------
 Symbolic Z-matrix:
 Charge = -2 Multiplicity = 1

                         Standard orientation:
 ---------------------------------------------------------------------
 Center     Atomic      Atomic             Coordinates (Angstroms)
 Number     Number       Type             X           Y           Z
 ---------------------------------------------------------------------
      1          6           0        0.206816   -1.516993   -0.019744
      2          6           0       -0.947272   -0.691086   -0.039464
      3          6           0       -0.946169    0.694055   -0.048760
      4          6           0        0.206636    1.517426   -0.037148
      5          6           0        1.406310    0.706091    0.002083
      6          6           0        1.406970   -0.707870    0.010319
      7          8           0        0.189782   -2.814635   -0.042157
      8          8           0        0.194098    2.816278   -0.046722
      9          6           0        2.711985   -1.469389    0.046164
     10          6           0        2.710781    1.467513    0.054979
     11          8           0       -2.292747    1.144809   -0.121459
     12          8           0       -2.288397   -1.140773   -0.146171
     13          6           0       -3.020686   -0.002887    0.256349
     14          1           0        3.314458   -1.245194    0.942448
     15          1           0        3.358707   -1.246182   -0.819481
     16          1           0        2.480374   -2.538375    0.039354
     17          1           0        2.478217    2.536302    0.059188
     18          1           0        3.364889    1.254602   -0.807036
     19          1           0        3.304949    1.231680    0.954285
     20          1           0       -3.132838   -0.014554    1.363386
     21          1           0       -4.002872   -0.004867   -0.228744
 ---------------------------------------------------------------------

 SCF Done:  E(UB3LYP) =  -649.058737040     A.U. after   16 cycles

 The electronic state is 1-A.
 Alpha  occ. eigenvalues --  -19.13019 -19.13016 -19.01178 -19.01162 -10.25889
 Alpha  occ. eigenvalues --  -10.17153 -10.17086 -10.16707 -10.16692 -10.13278
 Alpha  occ. eigenvalues --  -10.13262 -10.12284 -10.12235  -1.08898  -0.99319
 Alpha  occ. eigenvalues --   -0.92429  -0.92036  -0.78693  -0.73897  -0.69412
 Alpha  occ. eigenvalues --   -0.66065  -0.63644  -0.59925  -0.54850  -0.53614
 Alpha  occ. eigenvalues --   -0.49349  -0.47281  -0.45741  -0.42663  -0.40277
 Alpha  occ. eigenvalues --   -0.40042  -0.37007  -0.36578  -0.36222  -0.35844
 Alpha  occ. eigenvalues --   -0.35668  -0.34883  -0.34652  -0.32706  -0.31559
 Alpha  occ. eigenvalues --   -0.30817  -0.29318  -0.28858  -0.20984  -0.19645
 Alpha  occ. eigenvalues --   -0.19119  -0.17157  -0.11260
 Alpha virt. eigenvalues --   -0.00121   0.01192   0.01974   0.03177   0.03718
 Alpha virt. eigenvalues --    0.03946   0.04060   0.04376   0.04807   0.06291
 Alpha virt. eigenvalues --    0.06667   0.06805   0.07862   0.08186   0.08906

  Beta  occ. eigenvalues --  -19.13019 -19.13016 -19.01178 -19.01162 -10.25889
  Beta  occ. eigenvalues --  -10.17153 -10.17086 -10.16707 -10.16692 -10.13278
  Beta  occ. eigenvalues --  -10.13262 -10.12284 -10.12235  -1.08898  -0.99319
  Beta  occ. eigenvalues --   -0.92429  -0.92036  -0.78693  -0.73897  -0.69412
  Beta  occ. eigenvalues --   -0.66065  -0.63644  -0.59925  -0.54850  -0.53614
  Beta  occ. eigenvalues --   -0.49349  -0.47281  -0.45741  -0.42663  -0.40277
  Beta  occ. eigenvalues --   -0.40042  -0.37007  -0.36578  -0.36222  -0.35844
  Beta  occ. eigenvalues --   -0.35668  -0.34883  -0.34652  -0.32706  -0.31559
  Beta  occ. eigenvalues --   -0.30817  -0.29318  -0.28858  -0.20984  -0.19645
  Beta  occ. eigenvalues --   -0.19119  -0.17157  -0.11260
  Beta virt. eigenvalues --   -0.00121   0.01192   0.01974   0.03177   0.03718
  Beta virt. eigenvalues --    0.03946   0.04060   0.04376   0.04807   0.06291
  Beta virt. eigenvalues --    0.06667   0.06805   0.07862   0.08186   0.08906

 Mulliken charges and spin densities:
               1          2
     1  C   -0.888468   0.000000
     2  C    0.217250   0.000000
     3  C    0.257285  -0.000000
     4  C   -0.896315   0.000000
     5  C    0.580076   0.000000
     6  C    0.589778  -0.000000
     7  O   -0.746946   0.000000
     8  O   -0.748174  -0.000000
     9  C   -0.499115  -0.000000
    10  C   -0.496849   0.000000
    11  O   -0.248460   0.000000
    12  O   -0.240750  -0.000000
    13  C   -0.036721   0.000000
    14  H    0.124078   0.000000
    15  H    0.126287   0.000000
    16  H    0.169107  -0.000000
    17  H    0.169145  -0.000000
    18  H    0.126193   0.000000
    19  H    0.123992   0.000000
    20  H    0.144638   0.000000
    21  H    0.173968   0.000000
 Sum of Mulliken charges =  -2.00000   0.00000

 Dipole moment (field-independent basis, Debye):
    X=             -0.4703    Y=             -0.0419    Z=              1.0756  Tot=              1.1747
 Quadrupole moment (field-independent basis, Debye-Ang):
   XX=            -89.0325   YY=           -153.0929   ZZ=            -83.9917
   XY=              0.0109   XZ=             -2.1539   YZ=              0.0138

 Normal termination of Gaussian 16 at Sun Jan 21 07:42:10 2024.
