 Q-Chem 5.4, Q-Chem, Inc., Pleasanton, CA (2021)
 Q-Chem 5.4.0 for Intel X86 EM64T Linux

User input:
--------------------------------------------------------------
$molecule
-3 1
C                 -3.4720500000      2.4439540000      1.1368210000
C                 -4.2054110000      2.3160240000      2.3044930000
C                 -3.8230030000      1.3684200000      3.2610850000
C                 -2.3194680000      1.6534510000      0.8934070000
C                 -1.9613420000      0.6591830000      1.8368880000
C                 -2.7250440000      0.5426890000      3.0031500000
C                 -1.5670870000      1.8774940000     -0.3462600000
C                 -0.4160150000      0.9949450000     -0.6101580000
C                 -0.0255090000     -0.0185120000      0.2979110000
C                 -0.7486460000     -0.2633290000      1.6335620000
C                  0.3043610000      1.1661240000     -1.8174870000
C                  1.4026580000      0.3753030000     -2.1187970000
C                  1.8025330000     -0.6149730000     -1.2180860000
C                  1.0849410000     -0.8018030000     -0.0352590000
O                 -1.9113650000      2.7620130000     -1.1654840000
S                  2.3572130000      0.6201380000     -3.6668600000
O                  1.3567630000      0.5847910000     -4.7710690000
O                  3.0283310000      1.9447270000     -3.5232190000
O                  3.3209930000     -0.5218890000     -3.7059520000
C                  0.2575500000     -0.0118160000      2.7907710000
C                 -1.2208620000     -1.7474160000      1.6938580000
H                 -3.7456240000      3.1651390000      0.3753090000
H                 -5.0772600000      2.9458370000      2.4797240000
H                 -4.3832540000      1.2554440000      4.1867840000
H                 -2.4598930000     -0.2025580000      3.7460700000
H                 -0.0329900000      1.9364550000     -2.4988950000
H                  2.6592770000     -1.2317300000     -1.4596470000
H                  1.4143830000     -1.5828530000      0.6431840000
H                  0.5868310000      1.0317000000      2.7864070000
H                  1.1406870000     -0.6481110000      2.6896540000
H                 -0.1910250000     -0.2256080000      3.7640950000
H                 -0.3805470000     -2.4374040000      1.5668220000
H                 -1.9490980000     -1.9494100000      0.9034530000
H                 -1.6870700000     -1.9819780000      2.6552920000
$end

$rem
BASIS  =  6-311++G(d,p)
GUI  =  2
JOB_TYPE  =  SP
METHOD  =  B3LYP
SCF_CONVERGENCE  = 8
SOLVENT_METHOD = sm12
$end

$smx
solvent dimethylformamide
charges CM5
$end

--------------------------------------------------------------

             Standard Nuclear Orientation (Angstroms)
    I     Atom           X                Y                Z
 ----------------------------------------------------------------
    1      C      -3.4720500000     2.4439540000     1.1368210000
    2      C      -4.2054110000     2.3160240000     2.3044930000
    3      C      -3.8230030000     1.3684200000     3.2610850000
    4      C      -2.3194680000     1.6534510000     0.8934070000
    5      C      -1.9613420000     0.6591830000     1.8368880000
    6      C      -2.7250440000     0.5426890000     3.0031500000
    7      C      -1.5670870000     1.8774940000    -0.3462600000
    8      C      -0.4160150000     0.9949450000    -0.6101580000
    9      C      -0.0255090000    -0.0185120000     0.2979110000
   10      C      -0.7486460000    -0.2633290000     1.6335620000
   11      C       0.3043610000     1.1661240000    -1.8174870000
   12      C       1.4026580000     0.3753030000    -2.1187970000
   13      C       1.8025330000    -0.6149730000    -1.2180860000
   14      C       1.0849410000    -0.8018030000    -0.0352590000
   15      O      -1.9113650000     2.7620130000    -1.1654840000
   16      S       2.3572130000     0.6201380000    -3.6668600000
   17      O       1.3567630000     0.5847910000    -4.7710690000
   18      O       3.0283310000     1.9447270000    -3.5232190000
   19      O       3.3209930000    -0.5218890000    -3.7059520000
   20      C       0.2575500000    -0.0118160000     2.7907710000
   21      C      -1.2208620000    -1.7474160000     1.6938580000
   22      H      -3.7456240000     3.1651390000     0.3753090000
   23      H      -5.0772600000     2.9458370000     2.4797240000
   24      H      -4.3832540000     1.2554440000     4.1867840000
   25      H      -2.4598930000    -0.2025580000     3.7460700000
   26      H      -0.0329900000     1.9364550000    -2.4988950000
   27      H       2.6592770000    -1.2317300000    -1.4596470000
   28      H       1.4143830000    -1.5828530000     0.6431840000
   29      H       0.5868310000     1.0317000000     2.7864070000
   30      H       1.1406870000    -0.6481110000     2.6896540000
   31      H      -0.1910250000    -0.2256080000     3.7640950000
   32      H      -0.3805470000    -2.4374040000     1.5668220000
   33      H      -1.9490980000    -1.9494100000     0.9034530000
   34      H      -1.6870700000    -1.9819780000     2.6552920000
 ----------------------------------------------------------------

   24   -1316.4744504867      3.71e-09  Convergence criterion met
 Total energy in the final basis set =    -1317.3286536109

                    Orbital Energies (a.u.)
 --------------------------------------------------------------

 Alpha MOs
 -- Occupied --
-89.0671 -19.2105 -19.1075 -19.1072 -19.1071 -10.3933 -10.3737 -10.3690
-10.3674 -10.3553 -10.3533 -10.3474 -10.3164 -10.2847 -10.2765 -10.2596
-10.2595 -10.2587 -10.2575 -10.2559 -10.2540  -8.1254  -6.0880  -6.0879
 -6.0877  -1.1309  -1.1230  -1.0466  -0.9860  -0.9851  -0.9765  -0.9430
 -0.9381  -0.8958  -0.8592  -0.8285  -0.8073  -0.7889  -0.7835  -0.7397
 -0.7299  -0.7065  -0.6814  -0.6577  -0.6509  -0.6382  -0.6114  -0.5964
 -0.5866  -0.5761  -0.5632  -0.5427  -0.5356  -0.5281  -0.5272  -0.5219
 -0.5103  -0.5068  -0.5051  -0.4856  -0.4766  -0.4683  -0.4641  -0.4566
 -0.4511  -0.4411  -0.4376  -0.4335  -0.4321  -0.4204  -0.4132  -0.3625
 -0.3495  -0.3467  -0.3453  -0.3338  -0.3170  -0.3097  -0.2982  -0.2674

          Ground-State Mulliken Net Atomic Charges

     Atom                 Charge (a.u.)
  ----------------------------------------
      1 C                     0.230879
      2 C                    -0.566646
      3 C                   -12.882845
      4 C                    -2.474512
      5 C                     6.375500
      6 C                   -10.159364
      7 C                     2.590127
      8 C                     2.753753
      9 C                     4.165315
     10 C                     4.281378
     11 C                     1.165322
     12 C                     1.050223
     13 C                     4.181844
     14 C                     4.543872
     15 O                    -0.037847
     16 S                     0.921290
     17 O                    -0.317760
     18 O                    -0.288281
     19 O                    -0.273528
     20 C                     0.453005
     21 C                     0.709561
     22 H                     0.769061
     23 H                     2.307656
     24 H                   -17.925771
     25 H                     2.262342
     26 H                     0.239805
     27 H                     0.397893
     28 H                     0.694838
     29 H                     0.071170
     30 H                     0.714346
     31 H                     0.142881
     32 H                     0.766957
     33 H                     0.068888
     34 H                     0.068649
  ----------------------------------------
  Sum of atomic charges =    -3.000000

                    Cartesian Multipole Moments
 -----------------------------------------------------------------
    Charge (ESU x 10^10)
               -14.4096
    Dipole Moment (Debye)
         X      50.2311      Y     -20.3403      Z     -41.4689
       Tot      68.2390
    Quadrupole Moments (Debye-Ang)
        XX    -537.0162     XY      58.5845     YY    -202.8951
        XZ     387.1192     YZ     -65.7197     ZZ    -616.3089

 Total job time:  1858.27s(wall), 14626.02s(cpu)
        *  Thank you very much for using Q-Chem.  Have a nice day.  *
