 Q-Chem 5.4, Q-Chem, Inc., Pleasanton, CA (2021)
 Q-Chem 5.4.0 for Intel X86 EM64T Linux

User input:
--------------------------------------------------------------
$molecule
-1 2
C                  2.1492100000      3.8069790000      5.5284840000
C                  3.0460600000      3.1849580000      4.5880320000
C                  2.6180960000      2.2918570000      3.6425020000
C                  1.2262000000      1.9125630000      3.5270820000
C                  0.3275150000      2.5486920000      4.4722080000
C                  0.7383190000      3.4485550000      5.4233110000
O                  2.5694130000      4.6252410000      6.4147070000
O                  0.8160220000      1.0875000000      2.6613580000
C                 -0.2180450000      4.1712740000      6.3664000000
C                 -1.6315560000      3.6067010000      6.4271890000
O                  0.2838340000      4.1905330000      7.7075520000
H                  4.0941450000      3.4593940000      4.6713630000
H                  3.3123580000      1.8318430000      2.9447740000
H                 -0.7165980000      2.2689020000      4.3771500000
H                 -0.2849100000      5.2151650000      6.0109560000
H                 -2.1376290000      3.6812950000      5.4614400000
H                 -2.2056630000      4.1736620000      7.1649850000
H                 -1.6151230000      2.5578130000      6.7356150000
H                  1.2201160000      4.4622640000      7.5939030000
$end

$rem
BASIS  =  6-311++G(d,p)
GUI  =  2
JOB_TYPE  =  SP
METHOD  =  B3LYP
SCF_CONVERGENCE  = 8
SOLVENT_METHOD = sm12
$end

$smx
solvent dimethylformamide
charges CM5
$end

--------------------------------------------------------------

             Standard Nuclear Orientation (Angstroms)
    I     Atom           X                Y                Z
 ----------------------------------------------------------------
    1      C       2.1492100000     3.8069790000     5.5284840000
    2      C       3.0460600000     3.1849580000     4.5880320000
    3      C       2.6180960000     2.2918570000     3.6425020000
    4      C       1.2262000000     1.9125630000     3.5270820000
    5      C       0.3275150000     2.5486920000     4.4722080000
    6      C       0.7383190000     3.4485550000     5.4233110000
    7      O       2.5694130000     4.6252410000     6.4147070000
    8      O       0.8160220000     1.0875000000     2.6613580000
    9      C      -0.2180450000     4.1712740000     6.3664000000
   10      C      -1.6315560000     3.6067010000     6.4271890000
   11      O       0.2838340000     4.1905330000     7.7075520000
   12      H       4.0941450000     3.4593940000     4.6713630000
   13      H       3.3123580000     1.8318430000     2.9447740000
   14      H      -0.7165980000     2.2689020000     4.3771500000
   15      H      -0.2849100000     5.2151650000     6.0109560000
   16      H      -2.1376290000     3.6812950000     5.4614400000
   17      H      -2.2056630000     4.1736620000     7.1649850000
   18      H      -1.6151230000     2.5578130000     6.7356150000
   19      H       1.2201160000     4.4622640000     7.5939030000
 ----------------------------------------------------------------

   18    -535.5469149437      4.04e-09  Convergence criterion met
 Total energy in the final basis set =     -535.6306966720

                    Orbital Energies (a.u.)
 --------------------------------------------------------------

 Alpha MOs
 -- Occupied --
-19.1043 -19.0878 -19.0825 -10.2293 -10.2281 -10.2258 -10.1813 -10.1751
-10.1745 -10.1731 -10.1656  -1.0207  -1.0016  -0.9950  -0.8348  -0.7782
 -0.7328  -0.6926  -0.6363  -0.5893  -0.5684  -0.5066  -0.4821  -0.4815
 -0.4647  -0.4415  -0.4148  -0.4093  -0.4026  -0.3887  -0.3865  -0.3834
 -0.3698  -0.3639  -0.3444  -0.2900  -0.2729  -0.2667  -0.2497  -0.2407
 -0.1718

 Beta MOs
 -- Occupied --
-19.1043 -19.0809 -19.0747 -10.2281 -10.2275 -10.2250 -10.1805 -10.1742
-10.1731 -10.1718 -10.1656  -1.0169  -0.9885  -0.9860  -0.8289  -0.7762
 -0.7311  -0.6827  -0.6330  -0.5861  -0.5655  -0.5057  -0.4797  -0.4777
 -0.4621  -0.4397  -0.4038  -0.3998  -0.3970  -0.3870  -0.3850  -0.3710
 -0.3627  -0.3541  -0.3372  -0.2724  -0.2599  -0.2531  -0.2433  -0.2342

          Ground-State Mulliken Net Atomic Charges

     Atom                 Charge (a.u.)    Spin (a.u.)
  --------------------------------------------------------
      1 C                    -1.048391       0.085305
      2 C                     0.241074       0.071227
      3 C                     0.171670       0.118961
      4 C                    -1.041368       0.092033
      5 C                    -1.532137       0.049244
      6 C                     1.548106       0.047695
      7 O                    -0.357408       0.248687
      8 O                    -0.377090       0.276904
      9 C                    -0.084486       0.032675
     10 C                     0.132796      -0.004129
     11 O                    -0.230891       0.003036
     12 H                     0.245581      -0.006604
     13 H                     0.229948      -0.008806
     14 H                     0.123654      -0.008361
     15 H                     0.124475       0.006992
     16 H                     0.196963      -0.001145
     17 H                     0.264034      -0.000099
     18 H                     0.125383       0.000090
     19 H                     0.268088      -0.003705
  --------------------------------------------------------
  Sum of atomic charges =    -1.000000

                    Cartesian Multipole Moments
 -----------------------------------------------------------------
    Charge (ESU x 10^10)
                -4.8032
    Dipole Moment (Debye)
         X      -6.6133      Y     -13.6830      Z     -24.1174
       Tot      28.5063
    Quadrupole Moments (Debye-Ang)
        XX     -81.3222     XY     -24.7786     YY    -123.3078
        XZ     -35.5388     YZ     -86.6794     ZZ    -217.8087

 Total job time:  235.10s(wall), 1821.28s(cpu)
        *  Thank you very much for using Q-Chem.  Have a nice day.  *
