 Q-Chem 5.4, Q-Chem, Inc., Pleasanton, CA (2021)
 Q-Chem 5.4.0 for Intel X86 EM64T Linux

User input:
--------------------------------------------------------------
$molecule
-2 1
N                  3.5689980000     -1.2731360000      0.1794480000
C                  2.8734700000     -0.0750900000     -0.0634140000
C                  3.5709850000      1.0962260000     -0.3306590000
C                  2.8801310000      2.3248670000     -0.5056500000
C                  1.5106320000      2.3680390000     -0.4024270000
C                  0.7464550000      1.1923590000     -0.1459980000
C                 -0.6859860000      1.3175880000     -0.0801630000
O                 -1.2606510000      2.4827610000     -0.2427330000
C                 -1.4215200000      0.0984470000      0.1462620000
C                 -2.8641390000      0.0963340000      0.2318540000
N                 -3.5455630000      1.3266360000      0.2447210000
C                 -3.5704590000     -1.0950210000      0.3399570000
C                 -2.8859260000     -2.3380990000      0.4006150000
C                 -1.5128550000     -2.3731250000      0.3621630000
C                 -0.7414810000     -1.1811330000      0.2353100000
C                  0.6912230000     -1.3057440000      0.1743610000
O                  1.2607970000     -2.4826220000      0.2440970000
C                  1.4302460000     -0.0786210000      0.0111350000
H                  2.8878790000     -2.0605290000      0.1632260000
H                  4.3823800000     -1.3848800000     -0.4114530000
H                  4.6597640000      1.0654670000     -0.3569590000
H                  3.4461040000      3.2336760000     -0.7079870000
H                  0.9552060000      3.2916480000     -0.5183050000
H                 -4.4197720000      1.2997400000     -0.2635120000
H                 -2.8811820000      2.0761560000     -0.0399430000
H                 -4.6559800000     -1.0568490000      0.4251330000
H                 -3.4580320000     -3.2608880000      0.4920100000
H                 -0.9607260000     -3.3042090000      0.4189160000
$end
$rem
MAX_SCF_CYCLES=200
BASIS  =  6-311++G(d,p)
GUI  =  2
JOB_TYPE  =  SP
METHOD  =  B3LYP
SOLVENT_METHOD = COSMO
$end
$solvent
dielectric 37.219
opticaldielectric 1.43
$end

--------------------------------------------------------------

             Standard Nuclear Orientation (Angstroms)
    I     Atom           X                Y                Z
 ----------------------------------------------------------------
    1      N       3.2688209481    -1.9130437258     0.1780530102
    2      C       2.8129140501    -0.5888250915     0.0490209329
    3      C       3.7218967361     0.4586619231    -0.0312888925
    4      C       3.2707335390     1.8042399282    -0.0890072437
    5      C       1.9258161092     2.0838336220    -0.0562842594
    6      C       0.9514493144     1.0454321465     0.0091183903
    7      C      -0.4381387643     1.4208553073     0.0116063695
    8      O      -0.7872176757     2.6818999312    -0.0353761504
    9      C      -1.3896613285     0.3381846635     0.0434247691
   10      C      -2.8129046842     0.5888378421     0.0490255541
   11      N      -3.2688272063     1.9130783112     0.1781343164
   12      C      -3.7218991762    -0.4586243223    -0.0313047928
   13      C      -3.2707467516    -1.8042247179    -0.0890005494
   14      C      -1.9258376735    -2.0838360766    -0.0563446491
   15      C      -0.9514346563    -1.0454638802     0.0090495504
   16      C       0.4381470662    -1.4208837745     0.0114935118
   17      O       0.7872608943    -2.6819372228    -0.0352313616
   18      C       1.3896709717    -0.3381981163     0.0434716546
   19      H       2.4643276162    -2.5564420414     0.0263853859
   20      H       4.0929533262    -2.1033152381    -0.3767835119
   21      H       4.7875061378     0.2335539042    -0.0016156782
   22      H       3.9999485681     2.6118972446    -0.1449947197
   23      H       1.5500371174     3.1001401660    -0.0861254250
   24      H      -4.0930964798     2.1032914027    -0.3765409917
   25      H      -2.4644426608     2.5565540193     0.0260802063
   26      H      -4.7875038132    -0.2335261825    -0.0015477926
   27      H      -3.9999667039    -2.6118757116    -0.1450004896
   28      H      -1.5500935616    -3.1001580498    -0.0861902492
 ----------------------------------------------------------------

   11    -799.6893873537      4.93e-06  Convergence criterion met
 Total energy in the final basis set =     -799.6893873537
    5    -799.9624054771      9.70e-06  Convergence criterion met
 Total energy in the final basis set =     -799.9624054771

                    Orbital Energies (a.u.)
 --------------------------------------------------------------

 Alpha MOs
 -- Occupied --
-19.0324 -19.0323 -14.2788 -14.2788 -10.1904 -10.1904 -10.1829 -10.1829
-10.1485 -10.1485 -10.1457 -10.1457 -10.1401 -10.1401 -10.1379 -10.1378
-10.1360 -10.1360  -0.9511  -0.9476  -0.8834  -0.8817  -0.8169  -0.8018
 -0.7539  -0.7092  -0.7069  -0.6981  -0.6397  -0.6062  -0.5990  -0.5512
 -0.5272  -0.5258  -0.4980  -0.4761  -0.4661  -0.4498  -0.4439  -0.4275
 -0.4266  -0.4042  -0.4037  -0.3905  -0.3812  -0.3701  -0.3622  -0.3586
 -0.3494  -0.3351  -0.3306  -0.3270  -0.3196  -0.3101  -0.2871  -0.2786
 -0.2339  -0.2189  -0.2159  -0.2081  -0.1956  -0.1889  -0.1129

          Ground-State Mulliken Net Atomic Charges

     Atom                 Charge (a.u.)
  ----------------------------------------
      1 N                    -0.497032
      2 C                     0.022174
      3 C                    -0.285327
      4 C                    -0.457290
      5 C                    -0.339479
      6 C                     0.443593
      7 C                    -0.591833
      8 O                    -0.673415
      9 C                     0.295854
     10 C                     0.021914
     11 N                    -0.496221
     12 C                    -0.284655
     13 C                    -0.456920
     14 C                    -0.339278
     15 C                     0.444261
     16 C                    -0.593288
     17 O                    -0.672592
     18 C                     0.298628
     19 H                     0.322005
     20 H                     0.263306
     21 H                     0.162713
     22 H                     0.180184
     23 H                     0.152392
     24 H                     0.263229
     25 H                     0.321845
     26 H                     0.162678
     27 H                     0.180192
     28 H                     0.152361
  ----------------------------------------
  Sum of atomic charges =    -2.000000

                    Cartesian Multipole Moments
 -----------------------------------------------------------------
    Charge (ESU x 10^10)
                -9.6064
    Dipole Moment (Debye)
         X       0.0006      Y      -0.0020      Z      -2.5161
       Tot       2.5161
    Quadrupole Moments (Debye-Ang)
        XX    -132.5986     XY       6.0143     YY    -161.2195
        XZ      -0.0082     YZ       0.0014     ZZ    -120.5075

 Total job time:  113.66s(wall), 698.93s(cpu)
        *  Thank you very much for using Q-Chem.  Have a nice day.  *
