 Gaussian 16, Revision A.03,
 Gaussian 16:  ES64L-G16RevA.03 25-Dec-2016

 ----------------------------------------------------------------
 #P UB3LYP/6-311++G(d,p) SCRF=(PCM,Solvent=n,n-DiMethylFormamide)
 ----------------------------------------------------------------

 ------------------
 Radical PCM in DMF
 ------------------
 Symbolic Z-matrix:
 Charge = -1 Multiplicity = 2

                         Standard orientation:
 ---------------------------------------------------------------------
 Center     Atomic      Atomic             Coordinates (Angstroms)
 Number     Number       Type             X           Y           Z
 ---------------------------------------------------------------------
      1          6           0      -16.548889   -1.548805   -1.203992
      2          6           0      -15.914094   -0.356517   -0.693116
      3          6           0      -16.447919    0.411125    0.308445
      4          6           0      -17.721321    0.052381    0.918133
      5          6           0      -18.376293   -1.150129    0.414463
      6          6           0      -17.823173   -1.913735   -0.593403
      7          8           0      -16.020041   -2.232887   -2.130957
      8          8           0      -18.229211    0.759160    1.840953
      9          6           0      -18.506939   -3.155976   -1.108298
     10          6           0      -19.694200   -1.526912    1.047005
     11          1           0      -14.967615   -0.088938   -1.154253
     12          1           0      -18.644646   -3.903334   -0.316140
     13          1           0      -17.901467   -3.595900   -1.901708
     14          1           0      -19.505112   -2.935626   -1.508144
     15          1           0      -19.943315   -0.802343    1.822826
     16          1           0      -19.656896   -2.527100    1.497312
     17          1           0      -20.507498   -1.545377    0.310032
     18          6           0      -15.779974    1.676746    0.821032
     19          6           0      -14.284759    1.683337    0.697993
     20          6           0      -13.489297    2.516652    0.011739
     21          6           0      -11.986543    2.316341    0.022933
     22          6           0      -11.411065    1.792985   -1.318521
     23          6           0       -9.917457    1.634137   -1.277195
     24          6           0       -9.185967    0.515228   -1.383987
     25          6           0       -7.674690    0.583819   -1.284404
     26          6           0       -7.095883   -0.054367    0.003461
     27          6           0       -5.593665   -0.018235    0.035963
     28          6           0       -4.784558    0.613665    0.898360
     29          6           0       -3.280324    0.513514    0.743826
     30          6           0      -13.983531    3.680128   -0.814210
     31          6           0       -9.760385   -0.861884   -1.612345
     32          6           0       -5.264763    1.453067    2.057967
     33          6           0       -2.577835   -0.277523    1.876103
     34          6           0       -1.084704   -0.312951    1.705136
     35          6           0       -0.285145   -1.368173    1.493411
     36          6           0        1.208654   -1.169590    1.330263
     37          6           0        1.733517   -1.443544   -0.101826
     38          6           0        3.226050   -1.291242   -0.199496
     39          6           0        3.938109   -0.404484   -0.909554
     40          6           0        5.452401   -0.421234   -0.845811
     41          6           0        6.071564    0.802106   -0.123663
     42          6           0        7.574648    0.765829   -0.129910
     43          6           0        8.419050    0.666261    0.906708
     44          6           0        9.915300    0.630676    0.667318
     45          6           0       10.575390   -0.737669    0.972991
     46          6           0       12.065652   -0.707395    0.775594
     47          6           0       12.811641   -1.381753   -0.111097
     48          6           0       -0.762003   -2.798051    1.411470
     49          6           0        3.338251    0.644821   -1.813695
     50          6           0        7.992041    0.596130    2.352782
     51          6           0       12.264213   -2.370431   -1.111650
     52          6           0       14.314084   -1.184906   -0.145525
     53          6           0       14.829832   -0.447592   -1.407213
     54          6           0       16.328629   -0.328011   -1.422871
     55          6           0       17.085921    0.777275   -1.374808
     56          6           0       16.541639    2.184109   -1.320905
     57          6           0       18.597304    0.664017   -1.385457
     58          6           0       19.273398    1.054719   -0.047176
     59          6           0       20.773194    0.980301   -0.123740
     60          6           0       21.607853    0.179699    0.552544
     61          6           0       21.182706   -0.840933    1.578309
     62          6           0       23.099152    0.250443    0.328051
     63          1           0      -16.062878    1.775417    1.875736
     64          1           0      -16.227657    2.547520    0.328673
     65          1           0      -13.794340    0.876793    1.243641
     66          1           0      -11.719781    1.606497    0.811681
     67          1           0      -11.485356    3.264001    0.270052
     68          1           0      -11.665726    2.502377   -2.115670
     69          1           0      -11.911829    0.856037   -1.568750
     70          1           0       -9.370572    2.565298   -1.119564
     71          1           0       -7.350565    1.628017   -1.329269
     72          1           0       -7.227462    0.078803   -2.152165
     73          1           0       -7.419450   -1.100814    0.058528
     74          1           0       -7.531960    0.445830    0.870903
     75          1           0       -5.114921   -0.577562   -0.768802
     76          1           0       -2.849442    1.523904    0.708754
     77          1           0       -3.040921    0.038219   -0.211981
     78          1           0      -15.068451    3.776584   -0.788580
     79          1           0      -13.687114    3.580509   -1.864899
     80          1           0      -13.551233    4.623141   -0.453760
     81          1           0      -10.843318   -0.858878   -1.725260
     82          1           0       -9.520244   -1.537148   -0.783689
     83          1           0       -9.329799   -1.310369   -2.516093
     84          1           0       -6.343090    1.607465    2.049578
     85          1           0       -4.784118    2.438390    2.040260
     86          1           0       -5.005205    0.995308    3.019221
     87          1           0       -3.004154   -1.282264    1.917528
     88          1           0       -2.808184    0.196965    2.837809
     89          1           0       -0.606115    0.666023    1.750066
     90          1           0        1.741813   -1.830722    2.027383
     91          1           0        1.474872   -0.145153    1.606547
     92          1           0        1.212958   -0.782166   -0.797790
     93          1           0        1.467664   -2.467864   -0.389884
     94          1           0        3.788612   -2.001585    0.407349
     95          1           0        5.858857   -0.464565   -1.865623
     96          1           0        5.787831   -1.329907   -0.337536
     97          1           0        5.672722    0.847770    0.892076
     98          1           0        5.742315    1.718926   -0.627597
     99          1           0        8.019240    0.817317   -1.124335
    100          1           0       10.400873    1.396499    1.287594
    101          1           0       10.126582    0.892421   -0.373507
    102          1           0       10.101043   -1.501398    0.352834
    103          1           0       10.366786   -1.010483    2.014629
    104          1           0       12.592306   -0.029527    1.448109
    105          1           0       -1.833293   -2.899366    1.580790
    106          1           0       -0.244028   -3.416108    2.154669
    107          1           0       -0.540560   -3.236121    0.432278
    108          1           0        2.251413    0.591614   -1.865330
    109          1           0        3.728772    0.538353   -2.832792
    110          1           0        3.603424    1.654406   -1.481888
    111          1           0        6.912573    0.665239    2.482262
    112          1           0        8.452210    1.409941    2.925799
    113          1           0        8.321054   -0.338551    2.819318
    114          1           0       11.187030   -2.510025   -1.027677
    115          1           0       12.741346   -3.348940   -0.980472
    116          1           0       12.476925   -2.055132   -2.138706
    117          1           0       14.810018   -2.163529   -0.088385
    118          1           0       14.630750   -0.622883    0.737838
    119          1           0       14.345712    0.529840   -1.463782
    120          1           0       14.514364   -1.002014   -2.299449
    121          1           0       16.853018   -1.283011   -1.468558
    122          1           0       15.453423    2.222096   -1.356226
    123          1           0       16.926092    2.773617   -2.161717
    124          1           0       16.860400    2.698484   -0.408040
    125          1           0       19.003957    1.304779   -2.179783
    126          1           0       18.886782   -0.361200   -1.633534
    127          1           0       18.878270    0.415609    0.745649
    128          1           0       18.987359    2.081355    0.212170
    129          1           0       21.221147    1.669347   -0.840102
    130          1           0       20.102904   -0.894102    1.713213
    131          1           0       21.633610   -0.617293    2.552565
    132          1           0       21.536634   -1.839073    1.294539
    133          1           0       23.362002    1.000942   -0.420231
    134          1           0       23.492567   -0.717347   -0.005582
    135          1           0       23.625187    0.497091    1.258268
 ---------------------------------------------------------------------

 SCF Done:  E(UB3LYP) =  -2218.90826980     A.U. after   19 cycles

 Alpha virt. eigenvalues --    0.23734   0.23886   0.23960   0.24046   0.24100
 Alpha virt. eigenvalues --    0.24168   0.24372   0.24382   0.24560   0.24762
 Alpha virt. eigenvalues --    0.24859   0.24962   0.25187   0.25220   0.25322

  Beta  occ. eigenvalues --  -19.06270 -19.06216 -10.20830 -10.20803 -10.17668
  Beta  occ. eigenvalues --  -10.17501 -10.17499 -10.17497 -10.17487 -10.17474
  Beta  occ. eigenvalues --  -10.17445 -10.17383 -10.17106 -10.16782 -10.16778
  Beta  occ. eigenvalues --  -10.16770 -10.16769 -10.16757 -10.16739 -10.16737
  Beta  occ. eigenvalues --  -10.16734 -10.16725 -10.16717 -10.16717 -10.16699
  Beta  occ. eigenvalues --  -10.16697 -10.16649 -10.16582 -10.16537 -10.16327
  Beta  occ. eigenvalues --  -10.16184 -10.16146 -10.16118 -10.16116 -10.16110
  Beta  occ. eigenvalues --  -10.16099 -10.16084 -10.16084 -10.16083 -10.16079
  Beta  occ. eigenvalues --  -10.16076 -10.16069 -10.16063 -10.16058 -10.16039
  Beta  occ. eigenvalues --  -10.16027 -10.16011 -10.15974 -10.15964 -10.15908
  Beta  occ. eigenvalues --  -10.15902 -10.15743 -10.15012 -10.14999 -10.14827
  Beta  occ. eigenvalues --   -0.97946  -0.97634  -0.83246  -0.83093  -0.82876
  Beta  occ. eigenvalues --   -0.82608  -0.82297  -0.81944  -0.81552  -0.81129
  Beta  occ. eigenvalues --   -0.80710  -0.80429  -0.78277  -0.77663  -0.76941
  Beta  occ. eigenvalues --   -0.76099  -0.75206  -0.74309  -0.73455  -0.72721
  Beta  occ. eigenvalues --   -0.72211  -0.71575  -0.71410  -0.69200  -0.68891
  Beta  occ. eigenvalues --   -0.68825  -0.68732  -0.68595  -0.68388  -0.68061
  Beta  occ. eigenvalues --   -0.67576  -0.66976  -0.66223  -0.65181  -0.64560
  Beta  occ. eigenvalues --   -0.63610  -0.62654  -0.61734  -0.60800  -0.59940
  Beta  occ. eigenvalues --   -0.59214  -0.58652  -0.58329  -0.55198  -0.53286
  Beta  occ. eigenvalues --   -0.52364  -0.52309  -0.52184  -0.51988  -0.51774
  Beta  occ. eigenvalues --   -0.51554  -0.51350  -0.51213  -0.51048  -0.48485
  Beta  occ. eigenvalues --   -0.47978  -0.47964  -0.47845  -0.47804  -0.47707
  Beta  occ. eigenvalues --   -0.47466  -0.47148  -0.46696  -0.46414  -0.44810
  Beta  occ. eigenvalues --   -0.44728  -0.44558  -0.44339  -0.44040  -0.43740
  Beta  occ. eigenvalues --   -0.43580  -0.43274  -0.43130  -0.43099  -0.42981
  Beta  occ. eigenvalues --   -0.42365  -0.42015  -0.41858  -0.41692  -0.41545
  Beta  occ. eigenvalues --   -0.41374  -0.41226  -0.41182  -0.40979  -0.40807
  Beta  occ. eigenvalues --   -0.40597  -0.40375  -0.40337  -0.40217  -0.40133
  Beta  occ. eigenvalues --   -0.39750  -0.39469  -0.39249  -0.39090  -0.38737
  Beta  occ. eigenvalues --   -0.38674  -0.38459  -0.38141  -0.37857  -0.37577
  Beta  occ. eigenvalues --   -0.37414  -0.37359  -0.37320  -0.37265  -0.37225
  Beta  occ. eigenvalues --   -0.37135  -0.37075  -0.37020  -0.36916  -0.36776
  Beta  occ. eigenvalues --   -0.36658  -0.36527  -0.36458  -0.36239  -0.36152
  Beta  occ. eigenvalues --   -0.35938  -0.35742  -0.35542  -0.35485  -0.35242
  Beta  occ. eigenvalues --   -0.34871  -0.34366  -0.33981  -0.33874  -0.33796
  Beta  occ. eigenvalues --   -0.33671  -0.33522  -0.33503  -0.33187  -0.32943
  Beta  occ. eigenvalues --   -0.32887  -0.32860  -0.32836  -0.32643  -0.32485
  Beta  occ. eigenvalues --   -0.31962  -0.31475  -0.31098  -0.30873  -0.25335
  Beta  occ. eigenvalues --   -0.25161  -0.24861  -0.24543  -0.24163  -0.23777
  Beta  occ. eigenvalues --   -0.23552  -0.23251  -0.22981  -0.22713  -0.22439
  Beta  occ. eigenvalues --   -0.22370  -0.21760
  Beta virt. eigenvalues --   -0.08097  -0.00986  -0.00893  -0.00685  -0.00464
  Beta virt. eigenvalues --   -0.00178   0.00085   0.00106   0.00159   0.00280
  Beta virt. eigenvalues --    0.00333   0.00372   0.00503   0.00565   0.00608

 Mulliken charges and spin densities:
               1          2
     1  C   -1.080852   0.106126
     2  C   -0.593349   0.031720
     3  C    0.911444   0.080627
     4  C   -0.947439   0.119309
     5  C    0.225031   0.034531
     6  C    1.037470   0.117048
     7  O   -0.495135   0.238632
     8  O   -0.477269   0.246190
     9  C   -0.449867   0.007279
    10  C   -0.459426  -0.005938
    11  H    0.143614  -0.008812
    12  H    0.148145   0.003745
    13  H    0.182645  -0.001885
    14  H    0.147639   0.003649
    15  H    0.189455  -0.001954
    16  H    0.146159   0.002873
    17  H    0.148895   0.002873
    18  C   -0.305664   0.016337
    19  C   -0.239364   0.000243
    20  C    0.515413  -0.002836
    21  C   -0.516314   0.000648
    22  C   -0.298202   0.000005
    23  C   -0.108735   0.000245
    24  C    0.493094  -0.000127
    25  C   -0.584581  -0.000036
    26  C   -0.316513   0.000032
    27  C   -0.343642  -0.000019
    28  C    0.628103  -0.000005
    29  C   -0.412690  -0.000001
    30  C   -0.630189  -0.000578
    31  C   -0.749082   0.000137
    32  C   -0.705271  -0.000002
    33  C   -0.369764   0.000000
    34  C   -0.329724  -0.000001
    35  C    0.541239   0.000001
    36  C   -0.422868   0.000000
    37  C   -0.268992  -0.000000
    38  C   -0.320676  -0.000000
    39  C    0.483598   0.000000
    40  C   -0.404080   0.000000
    41  C   -0.281975  -0.000000
    42  C   -0.313616   0.000000
    43  C    0.512136   0.000000
    44  C   -0.440312  -0.000000
    45  C   -0.253999   0.000000
    46  C   -0.409143  -0.000000
    47  C    0.537824   0.000000
    48  C   -0.700461   0.000000
    49  C   -0.720651   0.000000
    50  C   -0.715496   0.000000
    51  C   -0.712315   0.000000
    52  C   -0.389030  -0.000000
    53  C   -0.197426  -0.000000
    54  C   -0.207125  -0.000000
    55  C    0.455176   0.000000
    56  C   -0.752381  -0.000000
    57  C   -0.580431   0.000000
    58  C   -0.253961   0.000000
    59  C    0.037234   0.000000
    60  C    0.275894  -0.000000
    61  C   -0.684953   0.000000
    62  C   -0.623120   0.000000
    63  H    0.201557   0.000656
    64  H    0.162859   0.009273
    65  H    0.151264   0.000616
    66  H    0.191576  -0.000221
    67  H    0.132373  -0.000101
    68  H    0.131842   0.000067
    69  H    0.167968   0.000309
    70  H    0.206330   0.000000
    71  H    0.158991   0.000001
    72  H    0.140930  -0.000001
    73  H    0.135391  -0.000003
    74  H    0.142111   0.000004
    75  H    0.202713   0.000001
    76  H    0.154612   0.000000
    77  H    0.165180  -0.000000
    78  H    0.129075  -0.000410
    79  H    0.168221  -0.000076
    80  H    0.163436   0.000069
    81  H    0.117405  -0.000248
    82  H    0.170366   0.000014
    83  H    0.160602  -0.000004
    84  H    0.129944  -0.000001
    85  H    0.162569   0.000000
    86  H    0.173584   0.000000
    87  H    0.133565  -0.000000
    88  H    0.134004   0.000000
    89  H    0.183764  -0.000000
    90  H    0.138407  -0.000000
    91  H    0.174760   0.000000
    92  H    0.137929  -0.000000
    93  H    0.128218  -0.000000
    94  H    0.192256  -0.000000
    95  H    0.139761   0.000000
    96  H    0.172681   0.000000
    97  H    0.135748  -0.000000
    98  H    0.128424  -0.000000
    99  H    0.192597   0.000000
   100  H    0.140820  -0.000000
   101  H    0.169550   0.000000
   102  H    0.132276   0.000000
   103  H    0.128585  -0.000000
   104  H    0.186940   0.000000
   105  H    0.129551   0.000000
   106  H    0.161581   0.000000
   107  H    0.168657  -0.000000
   108  H    0.130995  -0.000000
   109  H    0.162369   0.000000
   110  H    0.169091  -0.000000
   111  H    0.131335  -0.000000
   112  H    0.162152   0.000000
   113  H    0.169132   0.000000
   114  H    0.132555  -0.000000
   115  H    0.162483  -0.000000
   116  H    0.168328   0.000000
   117  H    0.134753  -0.000000
   118  H    0.177817   0.000000
   119  H    0.140501  -0.000000
   120  H    0.124337   0.000000
   121  H    0.206346  -0.000000
   122  H    0.129502   0.000000
   123  H    0.163404   0.000000
   124  H    0.170885  -0.000000
   125  H    0.137672   0.000000
   126  H    0.163784  -0.000000
   127  H    0.133370  -0.000000
   128  H    0.125210   0.000000
   129  H    0.193379   0.000000
   130  H    0.141221   0.000000
   131  H    0.145784  -0.000000
   132  H    0.148417  -0.000000
   133  H    0.151484  -0.000000
   134  H    0.151426  -0.000000
   135  H    0.147170  -0.000000
 Sum of Mulliken charges =  -1.00000   1.00000

 Dipole moment (field-independent basis, Debye):
    X=             81.3842    Y=              3.3445    Z=              1.2341  Tot=             81.4622
 Quadrupole moment (field-independent basis, Debye-Ang):
   XX=          -1732.6781   YY=           -360.1164   ZZ=           -375.2212
   XY=            -52.5942   XZ=             -0.0038   YZ=            -17.8613

 Normal termination of Gaussian 16 at Sun Jan 28 05:46:06 2024.
