 Q-Chem 5.4, Q-Chem, Inc., Pleasanton, CA (2021)
 Q-Chem 5.4.0 for Intel X86 EM64T Linux

User input:
--------------------------------------------------------------
$molecule
-2 1
C                  1.0436720000      1.5747370000     -1.1233280000
C                 -0.1810110000      0.8561330000     -1.2109960000
C                 -0.4347510000     -0.3705920000     -0.5765290000
C                  0.5629650000     -1.0053590000      0.2508330000
C                  1.8160790000     -0.2826720000      0.3509150000
C                  2.0462270000      0.9338160000     -0.2956770000
C                  3.3720310000      1.6457880000     -0.1585110000
C                  2.8927410000     -0.9161610000      1.2022260000
O                  1.2524310000      2.7009010000     -1.7309840000
O                  0.3762210000     -2.1298520000      0.8612030000
H                 -0.9618630000      1.3067560000     -1.8238190000
H                  3.6009510000      1.9054710000      0.8868960000
H                  3.3269660000      2.5648650000     -0.7482670000
H                  4.2152860000      1.0344510000     -0.5158940000
H                  2.5043570000     -1.8547630000      1.6044500000
H                  3.1964890000     -0.2711700000      2.0414090000
H                  3.8094600000     -1.1277990000      0.6291520000
C                 -1.7651130000     -1.0078810000     -0.8273680000
C                 -1.7601660000     -2.4971570000     -1.1631140000
O                 -2.6476960000     -0.8384310000      0.4068080000
C                 -3.9541160000     -0.7318160000      0.2531010000
C                 -4.6659340000     -0.5073930000      1.5796450000
O                 -4.5656790000     -0.7869150000     -0.8034350000
H                 -2.2912590000     -0.4543090000     -1.6057330000
H                 -2.7805060000     -2.8671660000     -1.3076490000
H                 -1.2430580000     -3.0381530000     -0.3704860000
H                 -1.2058690000     -2.6380820000     -2.0978430000
H                 -3.9756020000     -0.5358470000      2.4213770000
H                 -5.4435590000     -1.2656230000      1.7085290000
H                 -5.1726440000      0.4631230000      1.5525410000
$end

$rem
BASIS  =  6-311++G(d,p)
GUI  =  2
JOB_TYPE  =  SP
METHOD  =  B3LYP
SCF_CONVERGENCE  = 8
SOLVENT_METHOD = sm12
$end

$smx
solvent dimethylformamide
charges CM5
$end

--------------------------------------------------------------

             Standard Nuclear Orientation (Angstroms)
    I     Atom           X                Y                Z
 ----------------------------------------------------------------
    1      C       1.0436720000     1.5747370000    -1.1233280000
    2      C      -0.1810110000     0.8561330000    -1.2109960000
    3      C      -0.4347510000    -0.3705920000    -0.5765290000
    4      C       0.5629650000    -1.0053590000     0.2508330000
    5      C       1.8160790000    -0.2826720000     0.3509150000
    6      C       2.0462270000     0.9338160000    -0.2956770000
    7      C       3.3720310000     1.6457880000    -0.1585110000
    8      C       2.8927410000    -0.9161610000     1.2022260000
    9      O       1.2524310000     2.7009010000    -1.7309840000
   10      O       0.3762210000    -2.1298520000     0.8612030000
   11      H      -0.9618630000     1.3067560000    -1.8238190000
   12      H       3.6009510000     1.9054710000     0.8868960000
   13      H       3.3269660000     2.5648650000    -0.7482670000
   14      H       4.2152860000     1.0344510000    -0.5158940000
   15      H       2.5043570000    -1.8547630000     1.6044500000
   16      H       3.1964890000    -0.2711700000     2.0414090000
   17      H       3.8094600000    -1.1277990000     0.6291520000
   18      C      -1.7651130000    -1.0078810000    -0.8273680000
   19      C      -1.7601660000    -2.4971570000    -1.1631140000
   20      O      -2.6476960000    -0.8384310000     0.4068080000
   21      C      -3.9541160000    -0.7318160000     0.2531010000
   22      C      -4.6659340000    -0.5073930000     1.5796450000
   23      O      -4.5656790000    -0.7869150000    -0.8034350000
   24      H      -2.2912590000    -0.4543090000    -1.6057330000
   25      H      -2.7805060000    -2.8671660000    -1.3076490000
   26      H      -1.2430580000    -3.0381530000    -0.3704860000
   27      H      -1.2058690000    -2.6380820000    -2.0978430000
   28      H      -3.9756020000    -0.5358470000     2.4213770000
   29      H      -5.4435590000    -1.2656230000     1.7085290000
   30      H      -5.1726440000     0.4631230000     1.5525410000
 ----------------------------------------------------------------

   18    -766.7930897853      7.01e-09  Convergence criterion met
 Total energy in the final basis set =     -767.0764837616

                    Orbital Energies (a.u.)
 --------------------------------------------------------------

 Alpha MOs
 -- Occupied --
-19.1536 -19.1013 -19.0127 -19.0121 -10.2960 -10.2260 -10.1752 -10.1742
-10.1721 -10.1634 -10.1613 -10.1567 -10.1416 -10.1400 -10.1362 -10.1308
 -1.0922  -1.0057  -0.9308  -0.9252  -0.8038  -0.7882  -0.7430  -0.7254
 -0.7173  -0.6615  -0.6402  -0.6159  -0.5561  -0.5471  -0.5149  -0.4877
 -0.4714  -0.4639  -0.4600  -0.4340  -0.4285  -0.4195  -0.4133  -0.4045
 -0.3963  -0.3922  -0.3884  -0.3824  -0.3740  -0.3666  -0.3543  -0.3507
 -0.3439  -0.3323  -0.3218  -0.3160  -0.3059  -0.2975  -0.2725  -0.2236
 -0.2156  -0.1933  -0.1880  -0.1175

          Ground-State Mulliken Net Atomic Charges

     Atom                 Charge (a.u.)
  ----------------------------------------
      1 C                    -2.095170
      2 C                    -1.715693
      3 C                    -0.886326
      4 C                    -1.902560
      5 C                    -0.981163
      6 C                    -0.825287
      7 C                     0.539821
      8 C                     0.498511
      9 O                    -0.434754
     10 O                    -0.293376
     11 H                    -0.158752
     12 H                     0.193989
     13 H                     0.162693
     14 H                     0.200221
     15 H                     0.172918
     16 H                     0.176917
     17 H                     0.175361
     18 C                     2.955483
     19 C                     0.414307
     20 O                     0.218438
     21 C                    -0.090009
     22 C                     0.483235
     23 O                    -0.264323
     24 H                     0.243729
     25 H                     0.296417
     26 H                     0.141656
     27 H                     0.030639
     28 H                     0.214293
     29 H                     0.275805
     30 H                     0.252979
  ----------------------------------------
  Sum of atomic charges =    -2.000000

                    Cartesian Multipole Moments
 -----------------------------------------------------------------
    Charge (ESU x 10^10)
                -9.6064
    Dipole Moment (Debye)
         X      -4.5074      Y      -2.7490      Z       5.8210
       Tot       7.8586
    Quadrupole Moments (Debye-Ang)
        XX    -146.7824     XY     -15.7291     YY    -151.3274
        XZ      -7.4896     YZ      22.9675     ZZ    -123.5281

 Total job time:  756.90s(wall), 5851.10s(cpu)
        *  Thank you very much for using Q-Chem.  Have a nice day.  *
