 Gaussian 16, Revision A.03,
 Gaussian 16:  ES64L-G16RevA.03 25-Dec-2016

 --------------------------------------
 #P UB3LYP/6-311++G(d,p) nosym opt freq
 --------------------------------------

 -------
 Reduced
 -------
 Symbolic Z-matrix:
 Charge = -2 Multiplicity = 1

 SCF Done:  E(UB3LYP) =  -766.805946400     A.U. after   34 cycles
 Optimization completed.
    -- Stationary point found.
 Normal termination of Gaussian 16 at Sat Jan  6 06:03:39 2024.

 ----------------------------------------------------------------------
 #P Geom=AllCheck Guess=TCheck SCRF=Check GenChk UB3LYP/6-311++G(d,p) F
 req
 ----------------------------------------------------------------------

 Structure from the checkpoint file:  "042-an.chk"
 -------
 Reduced
 -------
 Charge = -2 Multiplicity = 1

                          Input orientation:
 ---------------------------------------------------------------------
 Center     Atomic      Atomic             Coordinates (Angstroms)
 Number     Number       Type             X           Y           Z
 ---------------------------------------------------------------------
      1          6           0        1.043672    1.574737   -1.123328
      2          6           0       -0.181011    0.856133   -1.210996
      3          6           0       -0.434751   -0.370592   -0.576529
      4          6           0        0.562965   -1.005359    0.250833
      5          6           0        1.816079   -0.282672    0.350915
      6          6           0        2.046227    0.933816   -0.295677
      7          6           0        3.372031    1.645788   -0.158511
      8          6           0        2.892741   -0.916161    1.202226
      9          8           0        1.252431    2.700901   -1.730984
     10          8           0        0.376221   -2.129852    0.861203
     11          1           0       -0.961863    1.306756   -1.823819
     12          1           0        3.600951    1.905471    0.886896
     13          1           0        3.326966    2.564865   -0.748267
     14          1           0        4.215286    1.034451   -0.515894
     15          1           0        2.504357   -1.854763    1.604450
     16          1           0        3.196489   -0.271170    2.041409
     17          1           0        3.809460   -1.127799    0.629152
     18          6           0       -1.765113   -1.007881   -0.827368
     19          6           0       -1.760166   -2.497157   -1.163114
     20          8           0       -2.647696   -0.838431    0.406808
     21          6           0       -3.954116   -0.731816    0.253101
     22          6           0       -4.665934   -0.507393    1.579645
     23          8           0       -4.565679   -0.786915   -0.803435
     24          1           0       -2.291259   -0.454309   -1.605733
     25          1           0       -2.780506   -2.867166   -1.307649
     26          1           0       -1.243058   -3.038153   -0.370486
     27          1           0       -1.205869   -2.638082   -2.097843
     28          1           0       -3.975602   -0.535847    2.421377
     29          1           0       -5.443559   -1.265623    1.708529
     30          1           0       -5.172644    0.463123    1.552541
 ---------------------------------------------------------------------

 SCF Done:  E(UB3LYP) =  -766.805946400     A.U. after    2 cycles

 Alpha  occ. eigenvalues --  -18.93812 -18.89378 -18.78067 -18.77454 -10.08894
 Alpha  occ. eigenvalues --   -9.99719  -9.97874  -9.93991  -9.93182  -9.93180
 Alpha  occ. eigenvalues --   -9.92250  -9.92181  -9.90208  -9.90045  -9.89974
 Alpha  occ. eigenvalues --   -9.88829  -0.87974  -0.79575  -0.69605  -0.68505
 Alpha  occ. eigenvalues --   -0.57387  -0.55515  -0.53214  -0.49548  -0.47723
 Alpha  occ. eigenvalues --   -0.43013  -0.40205  -0.38726  -0.33183  -0.30931
 Alpha  occ. eigenvalues --   -0.28082  -0.28046  -0.26133  -0.25129  -0.22710
 Alpha  occ. eigenvalues --   -0.21210  -0.20534  -0.19994  -0.18984  -0.18002
 Alpha  occ. eigenvalues --   -0.17347  -0.15928  -0.15752  -0.14484  -0.14255
 Alpha  occ. eigenvalues --   -0.13253  -0.13198  -0.11383  -0.10791  -0.10183
 Alpha  occ. eigenvalues --   -0.08907  -0.07828  -0.07482  -0.06715  -0.06457
 Alpha  occ. eigenvalues --    0.01670   0.02780   0.04307   0.05028   0.12686
 Alpha virt. eigenvalues --    0.14106   0.16692   0.17035   0.18055   0.18577
 Alpha virt. eigenvalues --    0.19594   0.19833   0.20692   0.21051   0.21221
 Alpha virt. eigenvalues --    0.22017   0.22317   0.22598   0.23151   0.23492

  Beta  occ. eigenvalues --  -18.93812 -18.89378 -18.78067 -18.77454 -10.08894
  Beta  occ. eigenvalues --   -9.99719  -9.97874  -9.93991  -9.93182  -9.93180
  Beta  occ. eigenvalues --   -9.92250  -9.92181  -9.90208  -9.90045  -9.89974
  Beta  occ. eigenvalues --   -9.88829  -0.87974  -0.79575  -0.69605  -0.68505
  Beta  occ. eigenvalues --   -0.57387  -0.55515  -0.53214  -0.49548  -0.47723
  Beta  occ. eigenvalues --   -0.43013  -0.40205  -0.38726  -0.33183  -0.30931
  Beta  occ. eigenvalues --   -0.28082  -0.28046  -0.26133  -0.25129  -0.22710
  Beta  occ. eigenvalues --   -0.21210  -0.20534  -0.19994  -0.18984  -0.18002
  Beta  occ. eigenvalues --   -0.17347  -0.15928  -0.15752  -0.14484  -0.14255
  Beta  occ. eigenvalues --   -0.13253  -0.13198  -0.11383  -0.10791  -0.10183
  Beta  occ. eigenvalues --   -0.08907  -0.07828  -0.07482  -0.06715  -0.06457
  Beta  occ. eigenvalues --    0.01670   0.02780   0.04307   0.05028   0.12686
  Beta virt. eigenvalues --    0.14106   0.16692   0.17035   0.18055   0.18577
  Beta virt. eigenvalues --    0.19594   0.19833   0.20692   0.21051   0.21221
  Beta virt. eigenvalues --    0.22017   0.22317   0.22598   0.23151   0.23492

 Mulliken charges and spin densities:
               1          2
     1  C   -1.147899  -0.000000
     2  C   -0.151517   0.000000
     3  C    1.039256   0.000000
     4  C   -0.898797  -0.000000
     5  C    0.517424   0.000000
     6  C    0.761818   0.000000
     7  C   -0.524561  -0.000000
     8  C   -0.676215  -0.000000
     9  O   -0.545746   0.000000
    10  O   -0.510619   0.000000
    11  H    0.082775  -0.000000
    12  H    0.081914  -0.000000
    13  H    0.187130   0.000000
    14  H    0.083357  -0.000000
    15  H    0.180913   0.000000
    16  H    0.082865  -0.000000
    17  H    0.078576  -0.000000
    18  C   -0.464428  -0.000000
    19  C   -0.487362   0.000000
    20  O    0.169117   0.000000
    21  C   -0.500971  -0.000000
    22  C    1.151339   0.000000
    23  O   -0.346123  -0.000000
    24  H    0.165654   0.000000
    25  H    0.128737  -0.000000
    26  H    0.199101   0.000000
    27  H    0.088335   0.000000
    28  H    0.056127   0.000000
    29  H   -0.471575  -0.000000
    30  H   -0.328625  -0.000000
 Sum of Mulliken charges =  -2.00000   0.00000

 Dipole moment (field-independent basis, Debye):
    X=              5.7924    Y=             -1.1421    Z=              1.4304  Tot=              6.0747
 Quadrupole moment (field-independent basis, Debye-Ang):
   XX=           -204.6656   YY=           -152.3031   ZZ=           -132.4835
   XY=            -19.7270   XZ=             14.6508   YZ=             21.6526

  Exact polarizability:1508.162 186.491 537.848-465.771 -82.304 443.196
 Approx polarizability:6478.817 818.848 617.367********-391.8721401.283

                      1                      2                      3
                      A                      A                      A
 Frequencies --     33.4555                46.9873                58.4075
 Red. masses --      4.4479                 3.8599                 5.8552
 Frc consts  --      0.0029                 0.0050                 0.0118
 IR Inten    --      0.3208                 1.2995                 1.6007

                      4                      5                      6
                      A                      A                      A
 Frequencies --     62.0723                71.9746               105.4237
 Red. masses --      1.1667                 1.0995                 4.1834
 Frc consts  --      0.0026                 0.0034                 0.0274
 IR Inten    --      0.0511                 0.1398                 6.5384

                      7                      8                      9
                      A                      A                      A
 Frequencies --    124.6543               134.2529               139.5262
 Red. masses --      1.3189                 2.1290                 2.7856
 Frc consts  --      0.0121                 0.0226                 0.0320
 IR Inten    --      1.3008                 0.9344                 0.3521

                     10                     11                     12
                      A                      A                      A
 Frequencies --    188.8451               205.4541               219.9464
 Red. masses --      3.3862                 5.3085                 1.4980
 Frc consts  --      0.0711                 0.1320                 0.0427
 IR Inten    --      6.0400                 4.5059                11.8886

                     13                     14                     15
                      A                      A                      A
 Frequencies --    230.3864               268.4434               296.8379
 Red. masses --      2.3654                 4.0539                 3.6010
 Frc consts  --      0.0740                 0.1721                 0.1869
 IR Inten    --      4.1875                 3.8928                 0.2002

                     16                     17                     18
                      A                      A                      A
 Frequencies --    312.9706               334.3314               362.3783
 Red. masses --      2.5914                 3.8211                 4.6644
 Frc consts  --      0.1495                 0.2516                 0.3609
 IR Inten    --      1.5595                 5.6859                 2.7999

                     19                     20                     21
                      A                      A                      A
 Frequencies --    393.7539               439.3955               452.7253
 Red. masses --      8.0976                 4.4275                 5.9795
 Frc consts  --      0.7397                 0.5036                 0.7221
 IR Inten    --     74.2090                13.5557               815.5333

                     22                     23                     24
                      A                      A                      A
 Frequencies --    484.2571               488.2838               536.8608
 Red. masses --      5.0702                 3.8385                 3.9339
 Frc consts  --      0.7005                 0.5392                 0.6680
 IR Inten    --    201.9376                 9.9033                28.6186

                     25                     26                     27
                      A                      A                      A
 Frequencies --    576.9850               603.5472               631.9903
 Red. masses --      4.6528                 4.3129                 2.8517
 Frc consts  --      0.9126                 0.9256                 0.6711
 IR Inten    --      3.8931                 2.4128                28.3870

                     28                     29                     30
                      A                      A                      A
 Frequencies --    668.6914               682.8448               713.6834
 Red. masses --      3.8838                 3.3399                 5.1712
 Frc consts  --      1.0232                 0.9175                 1.5519
 IR Inten    --     17.8046                 4.5650                27.4982

                     31                     32                     33
                      A                      A                      A
 Frequencies --    758.7280               782.9278               839.4048
 Red. masses --      4.8052                 4.2504                 1.8588
 Frc consts  --      1.6298                 1.5350                 0.7717
 IR Inten    --     39.1078                57.0805                11.5699

                     34                     35                     36
                      A                      A                      A
 Frequencies --    848.4063               910.0045               931.1254
 Red. masses --      3.2215                 2.2066                 4.8982
 Frc consts  --      1.3662                 1.0766                 2.5021
 IR Inten    --     46.1377                 4.8081                43.4798

                     37                     38                     39
                      A                      A                      A
 Frequencies --    968.8000              1016.4869              1017.4636
 Red. masses --      1.7613                 1.5951                 2.2815
 Frc consts  --      0.9740                 0.9710                 1.3916
 IR Inten    --     12.3764                94.3363                13.0439

                     40                     41                     42
                      A                      A                      A
 Frequencies --   1023.1168              1047.9545              1053.0148
 Red. masses --      1.4016                 1.5084                 1.7727
 Frc consts  --      0.8644                 0.9760                 1.1581
 IR Inten    --      0.1459                 0.1949                73.6256

                     43                     44                     45
                      A                      A                      A
 Frequencies --   1064.6934              1097.1393              1105.4042
 Red. masses --      1.7031                 2.6480                 2.3546
 Frc consts  --      1.1374                 1.8780                 1.6951
 IR Inten    --    294.8894                38.2720                29.8165

                     46                     47                     48
                      A                      A                      A
 Frequencies --   1150.2177              1190.1095              1213.4991
 Red. masses --      3.3566                 1.6826                 4.9241
 Frc consts  --      2.6165                 1.4042                 4.2722
 IR Inten    --     87.5967               280.4115               317.7588

                     49                     50                     51
                      A                      A                      A
 Frequencies --   1272.4705              1307.8514              1333.4227
 Red. masses --      2.9100                 3.3593                 1.7920
 Frc consts  --      2.7761                 3.3855                 1.8773
 IR Inten    --    421.7969                24.0894               513.2629

                     52                     53                     54
                      A                      A                      A
 Frequencies --   1342.7456              1353.0947              1360.6692
 Red. masses --      1.8117                 1.3022                 1.3625
 Frc consts  --      1.9245                 1.4047                 1.4863
 IR Inten    --    850.8015                49.5094                14.9394

                     55                     56                     57
                      A                      A                      A
 Frequencies --   1374.2405              1375.0562              1395.0001
 Red. masses --      1.4498                 1.3699                 1.9643
 Frc consts  --      1.6131                 1.5261                 2.2522
 IR Inten    --    811.3496               154.4880               447.9235

                     58                     59                     60
                      A                      A                      A
 Frequencies --   1425.7412              1449.1979              1461.6032
 Red. masses --      3.7156                 3.2025                 1.1426
 Frc consts  --      4.4501                 3.9627                 1.4381
 IR Inten    --    332.0025               190.6622               113.4983

                     61                     62                     63
                      A                      A                      A
 Frequencies --   1463.3987              1476.0980              1478.5610
 Red. masses --      1.4365                 1.1722                 1.1170
 Frc consts  --      1.8125                 1.5049                 1.4387
 IR Inten    --    239.2753                72.4227                59.3811

                     64                     65                     66
                      A                      A                      A
 Frequencies --   1479.5687              1486.6933              1494.7993
 Red. masses --      1.0613                 1.0528                 2.3147
 Frc consts  --      1.3689                 1.3711                 3.0472
 IR Inten    --     62.9922                 0.7209               104.2449

                     67                     68                     69
                      A                      A                      A
 Frequencies --   1501.9681              1505.6075              1580.1477
 Red. masses --      1.0516                 1.1012                 7.0915
 Frc consts  --      1.3977                 1.4708                10.4324
 IR Inten    --      3.3543                29.6538              3915.9843

                     70                     71                     72
                      A                      A                      A
 Frequencies --   1712.6001              2938.7148              2944.4227
 Red. masses --     10.7722                 1.0439                 1.0421
 Frc consts  --     18.6151                 5.3117                 5.3230
 IR Inten    --    251.4445               122.6065              1480.4632

                     73                     74                     75
                      A                      A                      A
 Frequencies --   2952.5075              2961.4009              3005.1100
 Red. masses --      1.0945                 1.0978                 1.0360
 Frc consts  --      5.6212                 5.6726                 5.5124
 IR Inten    --     27.2861               171.7317               117.2202

                     76                     77                     78
                      A                      A                      A
 Frequencies --   3017.6141              3059.1045              3069.4975
 Red. masses --      1.0389                 1.1006                 1.0986
 Frc consts  --      5.5740                 6.0684                 6.0985
 IR Inten    --     21.4691                13.0044                59.1420

                     79                     80                     81
                      A                      A                      A
 Frequencies --   3073.9042              3078.1528              3078.3495
 Red. masses --      1.0922                 1.0911                 1.0863
 Frc consts  --      6.0805                 6.0910                 6.0653
 IR Inten    --     24.9515                16.6771                 2.8420

                     82                     83                     84
                      A                      A                      A
 Frequencies --   3097.2761              3120.1055              3134.1587
 Red. masses --      1.0870                 1.1000                 1.1014
 Frc consts  --      6.1438                 6.3091                 6.3744
 IR Inten    --    161.4799                 4.0017                 8.7703

 - Thermochemistry -
 -------------------
 Temperature   298.150 Kelvin.  Pressure   1.00000 Atm.
 Atom     1 has atomic number  6 and mass  12.00000

 Molecular mass:   222.08921 amu.
 Principal axes and moments of inertia in atomic units:
                           1         2         3
     Eigenvalues --  1955.365816107.533747038.37218
           X            0.95278  -0.28627  -0.10129
           Y            0.29849   0.82155   0.48576
           Z           -0.05584  -0.49305   0.86820
 This molecule is an asymmetric top.
 Rotational symmetry number  1.
 Warning -- assumption of classical behavior for rotation
           may cause significant error
 Rotational temperatures (Kelvin)      0.04430     0.01418     0.01231
 Rotational constants (GHZ):           0.92297     0.29549     0.25641
 Zero-point vibrational energy     610386.9 (Joules/Mol)
                                  145.88597 (Kcal/Mol)
 Warning -- explicit consideration of  26 degrees of freedom as
           vibrations may cause significant error
 Vibrational temperatures:     48.14    67.60    84.04    89.31   103.56
          (Kelvin)            151.68   179.35   193.16   200.75   271.71
                              295.60   316.45   331.47   386.23   427.08
                              450.29   481.03   521.38   566.52   632.19
                              651.37   696.74   702.53   772.42   830.15
                              868.37   909.29   962.10   982.46  1026.83
                             1091.64  1126.46  1207.72  1220.67  1309.29
                             1339.68  1393.89  1462.50  1463.90  1472.04
                             1507.77  1515.05  1531.86  1578.54  1590.43
                             1654.91  1712.30  1745.95  1830.80  1881.71
                             1918.50  1931.91  1946.80  1957.70  1977.23
                             1978.40  2007.09  2051.32  2085.07  2102.92
                             2105.50  2123.78  2127.32  2128.77  2139.02
                             2150.68  2161.00  2166.23  2273.48  2464.05
                             4228.16  4236.37  4248.00  4260.80  4323.68
                             4341.67  4401.37  4416.32  4422.66  4428.78
                             4429.06  4456.29  4489.14  4509.36

 Zero-point correction=                           0.232484 (Hartree/Particle)
 Thermal correction to Energy=                    0.249621
 Thermal correction to Enthalpy=                  0.250565
 Thermal correction to Gibbs Free Energy=         0.186635
 Sum of electronic and zero-point Energies=           -766.573462
 Sum of electronic and thermal Energies=              -766.556325
 Sum of electronic and thermal Enthalpies=            -766.555381
 Sum of electronic and thermal Free Energies=         -766.619312

                     E (Thermal)             CV                S
                      KCal/Mol        Cal/Mol-Kelvin    Cal/Mol-Kelvin
 Total                  156.640             61.936            134.553
 Electronic               0.000              0.000              0.000
 Translational            0.889              2.981             42.096
 Rotational               0.889              2.981             32.797
 Vibrational            154.862             55.974             59.660
 Vibration     1          0.594              1.983              5.613
 Vibration     2          0.595              1.979              4.940
 Vibration     3          0.596              1.974              4.510
 Vibration     4          0.597              1.972              4.390
 Vibration     5          0.598              1.967              4.099
 Vibration     6          0.605              1.945              3.351
 Vibration     7          0.610              1.928              3.027
 Vibration     8          0.613              1.919              2.884
 Vibration     9          0.615              1.914              2.810
 Vibration    10          0.633              1.855              2.239
 Vibration    11          0.640              1.832              2.084
 Vibration    12          0.647              1.811              1.960
 Vibration    13          0.652              1.795              1.876
 Vibration    14          0.673              1.731              1.606
 Vibration    15          0.690              1.680              1.435
 Vibration    16          0.701              1.649              1.347
 Vibration    17          0.716              1.607              1.239
 Vibration    18          0.736              1.550              1.112
 Vibration    19          0.761              1.484              0.986
 Vibration    20          0.799              1.384              0.829
 Vibration    21          0.811              1.355              0.788
 Vibration    22          0.840              1.285              0.699
 Vibration    23          0.844              1.276              0.688
 Vibration    24          0.892              1.169              0.572
 Vibration    25          0.933              1.081              0.491
 Vibration    26          0.962              1.024              0.444

 Optimization completed.
    -- Stationary point found.
 Normal termination of Gaussian 16 at Sat Jan  6 07:03:55 2024.
