 Q-Chem 5.4, Q-Chem, Inc., Pleasanton, CA (2021)
 Q-Chem 5.4.0 for Intel X86 EM64T Linux

User input:
--------------------------------------------------------------
$molecule
0 1
C                 -4.5594670000      0.8903610000      0.3457680000
C                 -3.2154080000      0.2413320000      0.1780080000
C                 -3.0766070000     -1.1084240000     -0.0574780000
C                 -1.8137330000     -1.7181430000     -0.2149830000
O                 -1.7957290000     -3.0376070000     -0.4401450000
C                 -0.6502600000     -0.9345990000     -0.1313120000
C                  0.6563780000     -1.5468030000     -0.2911660000
O                  0.7596740000     -2.7892650000     -0.5069430000
C                  1.8495400000     -0.7155070000     -0.2005200000
C                  3.1220110000     -1.2934660000     -0.3528640000
O                  3.3168340000     -2.5980810000     -0.5829160000
C                  4.2694940000     -0.4743290000     -0.2623810000
C                  4.1576740000      0.8733900000     -0.0285670000
C                  2.8919810000      1.4804840000      0.1284570000
O                  2.8700110000      2.8001910000      0.3537180000
C                  1.7322330000      0.6885980000      0.0432250000
C                  0.4202540000      1.2999690000      0.2031680000
O                  0.3190030000      2.5425430000      0.4187820000
C                 -0.7716750000      0.4687850000      0.1125680000
C                 -2.0428250000      1.0459170000      0.2648650000
O                 -2.2266980000      2.3529520000      0.4949570000
H                 -4.7084690000      1.6725600000     -0.4037990000
H                 -4.6349800000      1.3787550000      1.3212990000
H                 -5.3612630000      0.1570120000      0.2550300000
H                 -3.9503350000     -1.7460830000     -0.1287200000
H                 -0.8490360000     -3.3050550000     -0.5259820000
H                  2.4262860000     -3.0233010000     -0.6173890000
H                  5.2382600000     -0.9438000000     -0.3833390000
H                  5.0349120000      1.5050650000      0.0415250000
H                  1.9232220000      3.0653840000      0.4391710000
H                 -1.3312810000      2.7711600000      0.5279620000
$end
$rem
MAX_SCF_CYCLES=200
BASIS  =  6-311++G(d,p)
GUI  =  2
JOB_TYPE  =  SP
METHOD  =  B3LYP
SOLVENT_METHOD = COSMO
$end
$solvent
dielectric 37.219
opticaldielectric 1.43
$end

--------------------------------------------------------------

             Standard Nuclear Orientation (Angstroms)
    I     Atom           X                Y                Z
 ----------------------------------------------------------------
    1      C       4.8528858571    -0.8106699598     0.0001644490
    2      C       3.4825182194    -0.1958779826     0.0000290084
    3      C       3.2900617511     1.1677646169    -0.0000127600
    4      C       2.0024774357     1.7452959615    -0.0000379204
    5      O       1.9320697175     3.0821018825    -0.0000529357
    6      C       0.8696602933     0.9138293177    -0.0000510733
    7      C      -0.4618069095     1.4924872324    -0.0001375078
    8      O      -0.6144861111     2.7485249118    -0.0002276889
    9      C      -1.6224227969     0.6116489690    -0.0000332026
   10      C      -2.9183386120     1.1566534881     0.0001079937
   11      O      -3.1650396911     2.4727229353     0.0002080250
   12      C      -4.0337423189     0.2896100060     0.0001718193
   13      C      -3.8683668050    -1.0728033395     0.0000399406
   14      C      -2.5780740273    -1.6475580379    -0.0000872647
   15      O      -2.5036944272    -2.9844647029    -0.0001818402
   16      C      -1.4493138333    -0.8077581940    -0.0000580943
   17      C      -0.1125364556    -1.3854011581     0.0000314381
   18      O       0.0380968415    -2.6416021441     0.0000281098
   19      C       1.0468542003    -0.5047291140     0.0000054150
   20      C       2.3414228349    -1.0489626066     0.0000118719
   21      O       2.5772702468    -2.3678515701     0.0000053202
   22      H       4.9904327695    -1.4512422507    -0.8754128156
   23      H       4.9904134274    -1.4508034153     0.8760679659
   24      H       5.6258674466    -0.0416378436    -0.0000160001
   25      H       4.1388111451     1.8420861326    -0.0000361264
   26      H       0.9743822217     3.3228480540    -0.0000828117
   27      H      -2.2910312471     2.9322720700     0.0001122292
   28      H      -5.0215255009     0.7343861135     0.0003133445
   29      H      -4.7208643856    -1.7411749250     0.0000801666
   30      H      -1.5460006608    -3.2229214122    -0.0001565129
   31      H       1.6981091743    -2.8204382169     0.0000339612
 ----------------------------------------------------------------

    9   -1029.3171402734      6.40e-06  Convergence criterion met
 Total energy in the final basis set =    -1029.3171402734
    4   -1029.3320861791      8.70e-06  Convergence criterion met
 Total energy in the final basis set =    -1029.3320861791

                    Orbital Energies (a.u.)
 --------------------------------------------------------------

 Alpha MOs
 -- Occupied --
-19.1668 -19.1666 -19.1663 -19.1662 -19.1448 -19.1430 -10.2923 -10.2907
-10.2692 -10.2686 -10.2684 -10.2676 -10.2145 -10.2134 -10.2128 -10.2121
-10.2096 -10.2035 -10.2028 -10.1984 -10.1739  -1.0998  -1.0979  -1.0884
 -1.0872  -1.0575  -1.0560  -0.8971  -0.8786  -0.8300  -0.7930  -0.7782
 -0.7637  -0.7286  -0.7006  -0.6815  -0.6579  -0.6381  -0.6281  -0.5872
 -0.5623  -0.5574  -0.5509  -0.5474  -0.5439  -0.5021  -0.4871  -0.4797
 -0.4751  -0.4726  -0.4646  -0.4536  -0.4446  -0.4402  -0.4394  -0.4364
 -0.4273  -0.4271  -0.4179  -0.4026  -0.3980  -0.3954  -0.3929  -0.3894
 -0.3815  -0.3779  -0.3402  -0.3308  -0.3071  -0.2952  -0.2883  -0.2786
 -0.2472  -0.2266

          Ground-State Mulliken Net Atomic Charges

     Atom                 Charge (a.u.)
  ----------------------------------------
      1 C                    -0.135612
      2 C                     0.999895
      3 C                    -0.868139
      4 C                    -0.344758
      5 O                    -0.349821
      6 C                     0.629703
      7 C                    -0.516008
      8 O                    -0.432926
      9 C                     0.422835
     10 C                    -0.305058
     11 O                    -0.354191
     12 C                    -0.110423
     13 C                    -0.132376
     14 C                    -0.270466
     15 O                    -0.355809
     16 C                     0.464833
     17 C                    -0.412700
     18 O                    -0.437753
     19 C                     0.182776
     20 C                    -0.226908
     21 O                    -0.354803
     22 H                     0.201851
     23 H                     0.201841
     24 H                     0.191872
     25 H                     0.211478
     26 H                     0.394800
     27 H                     0.394687
     28 H                     0.250302
     29 H                     0.249887
     30 H                     0.394602
     31 H                     0.416389
  ----------------------------------------
  Sum of atomic charges =     0.000000

                    Cartesian Multipole Moments
 -----------------------------------------------------------------
    Charge (ESU x 10^10)
                 0.0000
    Dipole Moment (Debye)
         X       1.1404      Y      -0.5601      Z       0.0003
       Tot       1.2705
    Quadrupole Moments (Debye-Ang)
        XX    -102.6078     XY       1.8481     YY    -138.3351
        XZ      -0.0010     YZ       0.0009     ZZ    -121.6166

 Total job time:  78.90s(wall), 590.82s(cpu)
        *  Thank you very much for using Q-Chem.  Have a nice day.  *
