 Gaussian 16, Revision A.03,
 Gaussian 16:  ES64L-G16RevA.03 25-Dec-2016

 --------------------------------------
 #P UB3LYP/6-311++G(d,p) nosym opt freq
 --------------------------------------

 --------
 Oxidized
 --------
 Symbolic Z-matrix:
 Charge =  0 Multiplicity = 1

 SCF Done:  E(UB3LYP) =  -1029.31719582     A.U. after   15 cycles
 SCF Done:  E(UB3LYP) =  -1029.31719560     A.U. after    9 cycles
 SCF Done:  E(UB3LYP) =  -1029.31719589     A.U. after    8 cycles
 Optimization completed.
    -- Stationary point found.
 Normal termination of Gaussian 16 at Sun Jan  7 06:54:43 2024.

 ----------------------------------------------------------------------
 #P Geom=AllCheck Guess=TCheck SCRF=Check GenChk UB3LYP/6-311++G(d,p) F
 req
 ----------------------------------------------------------------------

 Structure from the checkpoint file:  "206.chk"
 --------
 Oxidized
 --------
 Charge =  0 Multiplicity = 1

                          Input orientation:
 ---------------------------------------------------------------------
 Center     Atomic      Atomic             Coordinates (Angstroms)
 Number     Number       Type             X           Y           Z
 ---------------------------------------------------------------------
      1          6           0       -4.559467    0.890361    0.345768
      2          6           0       -3.215408    0.241332    0.178008
      3          6           0       -3.076607   -1.108424   -0.057478
      4          6           0       -1.813733   -1.718143   -0.214983
      5          8           0       -1.795729   -3.037607   -0.440145
      6          6           0       -0.650260   -0.934599   -0.131312
      7          6           0        0.656378   -1.546803   -0.291166
      8          8           0        0.759674   -2.789265   -0.506943
      9          6           0        1.849540   -0.715507   -0.200520
     10          6           0        3.122011   -1.293466   -0.352864
     11          8           0        3.316834   -2.598081   -0.582916
     12          6           0        4.269494   -0.474329   -0.262381
     13          6           0        4.157674    0.873390   -0.028567
     14          6           0        2.891981    1.480484    0.128457
     15          8           0        2.870011    2.800191    0.353718
     16          6           0        1.732233    0.688598    0.043225
     17          6           0        0.420254    1.299969    0.203168
     18          8           0        0.319003    2.542543    0.418782
     19          6           0       -0.771675    0.468785    0.112568
     20          6           0       -2.042825    1.045917    0.264865
     21          8           0       -2.226698    2.352952    0.494957
     22          1           0       -4.708469    1.672560   -0.403799
     23          1           0       -4.634980    1.378755    1.321299
     24          1           0       -5.361263    0.157012    0.255030
     25          1           0       -3.950335   -1.746083   -0.128720
     26          1           0       -0.849036   -3.305055   -0.525982
     27          1           0        2.426286   -3.023301   -0.617389
     28          1           0        5.238260   -0.943800   -0.383339
     29          1           0        5.034912    1.505065    0.041525
     30          1           0        1.923222    3.065384    0.439171
     31          1           0       -1.331281    2.771160    0.527962
 ---------------------------------------------------------------------

 SCF Done:  E(UB3LYP) =  -1029.31719589     A.U. after    2 cycles

 Alpha  occ. eigenvalues --  -19.16875 -19.16736 -19.16674 -19.16621 -19.14893
 Alpha  occ. eigenvalues --  -19.14634 -10.29661 -10.29441 -10.27407 -10.27328
 Alpha  occ. eigenvalues --  -10.27313 -10.27294 -10.22208 -10.21834 -10.21760
 Alpha  occ. eigenvalues --  -10.21758 -10.21478 -10.21186 -10.21119 -10.20685
 Alpha  occ. eigenvalues --  -10.18748  -1.10243  -1.09953  -1.09010  -1.08807
 Alpha  occ. eigenvalues --   -1.06070  -1.05838  -0.90284  -0.88477  -0.83724
 Alpha  occ. eigenvalues --   -0.80020  -0.78318  -0.76896  -0.73671  -0.70680
 Alpha  occ. eigenvalues --   -0.68735  -0.66514  -0.64269  -0.63129  -0.59168
 Alpha  occ. eigenvalues --   -0.56803  -0.56129  -0.55486  -0.55138  -0.54911
 Alpha  occ. eigenvalues --   -0.50770  -0.49284  -0.48473  -0.48116  -0.47546
 Alpha  occ. eigenvalues --   -0.46849  -0.45924  -0.44761  -0.44760  -0.44476
 Alpha  occ. eigenvalues --   -0.43789  -0.43321  -0.43285  -0.42058  -0.40634
 Alpha  occ. eigenvalues --   -0.40365  -0.39926  -0.39918  -0.39763  -0.38297
 Alpha  occ. eigenvalues --   -0.38155  -0.34295  -0.33350  -0.31033  -0.30151
 Alpha  occ. eigenvalues --   -0.29154  -0.28611  -0.25068  -0.23001
 Alpha virt. eigenvalues --   -0.13157  -0.07229  -0.05016  -0.01259  -0.00987
 Alpha virt. eigenvalues --   -0.00387   0.00546   0.00635   0.01820   0.01981
 Alpha virt. eigenvalues --    0.02820   0.03219   0.03281   0.03491   0.03599

  Beta  occ. eigenvalues --  -19.16875 -19.16736 -19.16674 -19.16621 -19.14893
  Beta  occ. eigenvalues --  -19.14634 -10.29661 -10.29441 -10.27407 -10.27328
  Beta  occ. eigenvalues --  -10.27313 -10.27294 -10.22208 -10.21834 -10.21760
  Beta  occ. eigenvalues --  -10.21758 -10.21478 -10.21186 -10.21119 -10.20685
  Beta  occ. eigenvalues --  -10.18748  -1.10243  -1.09953  -1.09010  -1.08807
  Beta  occ. eigenvalues --   -1.06070  -1.05838  -0.90284  -0.88477  -0.83724
  Beta  occ. eigenvalues --   -0.80020  -0.78318  -0.76896  -0.73671  -0.70680
  Beta  occ. eigenvalues --   -0.68735  -0.66514  -0.64269  -0.63129  -0.59168
  Beta  occ. eigenvalues --   -0.56803  -0.56129  -0.55486  -0.55138  -0.54911
  Beta  occ. eigenvalues --   -0.50770  -0.49284  -0.48473  -0.48116  -0.47546
  Beta  occ. eigenvalues --   -0.46849  -0.45924  -0.44761  -0.44760  -0.44476
  Beta  occ. eigenvalues --   -0.43789  -0.43321  -0.43285  -0.42058  -0.40634
  Beta  occ. eigenvalues --   -0.40365  -0.39926  -0.39918  -0.39763  -0.38297
  Beta  occ. eigenvalues --   -0.38155  -0.34295  -0.33350  -0.31033  -0.30151
  Beta  occ. eigenvalues --   -0.29154  -0.28611  -0.25068  -0.23001
  Beta virt. eigenvalues --   -0.13157  -0.07229  -0.05016  -0.01259  -0.00987
  Beta virt. eigenvalues --   -0.00387   0.00546   0.00635   0.01820   0.01981
  Beta virt. eigenvalues --    0.02820   0.03219   0.03281   0.03491   0.03599

 Mulliken charges and spin densities:
               1          2
     1  C   -0.065693   0.000000
     2  C    1.076599  -0.000000
     3  C   -0.783837   0.000000
     4  C   -0.416116   0.000000
     5  O   -0.290316  -0.000000
     6  C    0.592140   0.000000
     7  C   -0.539643  -0.000000
     8  O   -0.398417   0.000000
     9  C    0.395344  -0.000000
    10  C   -0.381840  -0.000000
    11  O   -0.294886   0.000000
    12  C    0.009451   0.000000
    13  C   -0.028168   0.000000
    14  C   -0.345501  -0.000000
    15  O   -0.296687  -0.000000
    16  C    0.440113  -0.000000
    17  C   -0.433446   0.000000
    18  O   -0.405898  -0.000000
    19  C    0.143126   0.000000
    20  C   -0.297034  -0.000000
    21  O   -0.302305   0.000000
    22  H    0.191967  -0.000000
    23  H    0.191977  -0.000000
    24  H    0.165676  -0.000000
    25  H    0.171596  -0.000000
    26  H    0.364621   0.000000
    27  H    0.364830  -0.000000
    28  H    0.210958   0.000000
    29  H    0.209886  -0.000000
    30  H    0.364248   0.000000
    31  H    0.387250   0.000000
 Sum of Mulliken charges =  -0.00000  -0.00000

 Dipole moment (field-independent basis, Debye):
    X=             -0.8932    Y=              0.4647    Z=              0.1175  Tot=              1.0137
 Quadrupole moment (field-independent basis, Debye-Ang):
   XX=           -106.3980   YY=           -134.4233   ZZ=           -121.9982
   XY=              0.3749   XZ=             -0.5854   YZ=             -2.1881

  Exact polarizability: 364.958   1.659 224.756 -11.226  22.031  99.006
 Approx polarizability: 620.424   5.680 425.755 -18.881  45.907 162.983

                      1                      2                      3
                      A                      A                      A
 Frequencies --     45.8593                66.6757               114.7192
 Red. masses --      5.5135                 8.1696                 5.6664
 Frc consts  --      0.0068                 0.0214                 0.0439
 IR Inten    --      0.9814                 0.0048                 0.0746

                      4                      5                      6
                      A                      A                      A
 Frequencies --    129.7931               141.1156               153.3036
 Red. masses --      2.0999                 1.8193                 7.4574
 Frc consts  --      0.0208                 0.0213                 0.1033
 IR Inten    --      0.0199                 0.0473                 1.6699

                      7                      8                      9
                      A                      A                      A
 Frequencies --    170.3813               189.0638               217.7971
 Red. masses --      6.5709                 5.2409                 6.6233
 Frc consts  --      0.1124                 0.1104                 0.1851
 IR Inten    --      0.0002                 0.6517                 0.0564

                     10                     11                     12
                      A                      A                      A
 Frequencies --    262.3364               275.6718               301.2569
 Red. masses --      5.2385                 4.4631                 6.3121
 Frc consts  --      0.2124                 0.1998                 0.3375
 IR Inten    --      0.4812                 2.6019                 0.6369

                     13                     14                     15
                      A                      A                      A
 Frequencies --    321.7585               364.9246               388.3634
 Red. masses --      4.8580                 5.5930                 6.8093
 Frc consts  --      0.2963                 0.4388                 0.6051
 IR Inten    --      1.9683                 0.0002                 0.9799

                     16                     17                     18
                      A                      A                      A
 Frequencies --    402.0996               416.7112               431.6977
 Red. masses --      5.3841                 7.9426                 7.9377
 Frc consts  --      0.5129                 0.8126                 0.8716
 IR Inten    --      0.2272                 3.2411                 1.6273

                     19                     20                     21
                      A                      A                      A
 Frequencies --    433.0885               460.5173               467.3170
 Red. masses --      6.2962                10.6587                 9.9837
 Frc consts  --      0.6958                 1.3318                 1.2846
 IR Inten    --      1.0474                 9.0776                14.1348

                     22                     23                     24
                      A                      A                      A
 Frequencies --    477.7166               495.0690               497.6153
 Red. masses --     11.0032                 5.5743                 8.0296
 Frc consts  --      1.4795                 0.8050                 1.1715
 IR Inten    --     18.1376                 1.7339                15.9199

                     25                     26                     27
                      A                      A                      A
 Frequencies --    535.7818               543.6023               565.5524
 Red. masses --      5.3506                 9.3250                 3.9101
 Frc consts  --      0.9050                 1.6235                 0.7369
 IR Inten    --      0.9740                 1.2058                 6.4131

                     28                     29                     30
                      A                      A                      A
 Frequencies --    618.9529               636.0314               676.1783
 Red. masses --      4.9447                 4.5094                 6.6804
 Frc consts  --      1.1161                 1.0748                 1.7996
 IR Inten    --      8.9439                 0.6136                 0.4812

                     31                     32                     33
                      A                      A                      A
 Frequencies --    676.4456               696.3491               722.5472
 Red. masses --      4.6856                 7.2753                11.2973
 Frc consts  --      1.2632                 2.0785                 3.4750
 IR Inten    --     20.5006                 0.7660                 0.0833

                     34                     35                     36
                      A                      A                      A
 Frequencies --    732.1567               760.2106               783.7027
 Red. masses --      7.2505                 3.4099                 1.0960
 Frc consts  --      2.2900                 1.1611                 0.3966
 IR Inten    --      8.0305                36.7794                 9.9809

                     37                     38                     39
                      A                      A                      A
 Frequencies --    791.3008               791.9842               806.2744
 Red. masses --      1.1505                 1.1570                 1.0937
 Frc consts  --      0.4245                 0.4276                 0.4189
 IR Inten    --    143.3488                93.0146               105.0739

                     40                     41                     42
                      A                      A                      A
 Frequencies --    807.7416               857.6977               866.5117
 Red. masses --      7.7510                 1.5812                 8.6286
 Frc consts  --      2.9796                 0.6853                 3.8172
 IR Inten    --     11.4530                19.0387                 4.9306

                     43                     44                     45
                      A                      A                      A
 Frequencies --    903.2431               938.3069               980.0878
 Red. masses --      1.3882                 5.5681                 1.2923
 Frc consts  --      0.6673                 2.8883                 0.7314
 IR Inten    --      9.7842                14.2585                 0.0001

                     46                     47                     48
                      A                      A                      A
 Frequencies --    993.8275               997.9212              1046.3491
 Red. masses --      7.4694                 2.7782                 2.1084
 Frc consts  --      4.3467                 1.6301                 1.3601
 IR Inten    --     54.7781                 1.6724                39.4250

                     49                     50                     51
                      A                      A                      A
 Frequencies --   1057.6949              1100.2038              1158.7391
 Red. masses --      1.5153                 3.1012                 1.6727
 Frc consts  --      0.9988                 2.2117                 1.3232
 IR Inten    --      2.3124                67.7476                 1.0509

                     52                     53                     54
                      A                      A                      A
 Frequencies --   1202.5936              1214.4080              1246.6544
 Red. masses --      2.0467                 2.2836                 1.8687
 Frc consts  --      1.7440                 1.9842                 1.7111
 IR Inten    --    208.9661               556.6903               147.2010

                     55                     56                     57
                      A                      A                      A
 Frequencies --   1289.4186              1298.0886              1319.1712
 Red. masses --      5.2748                 4.9013                 4.3960
 Frc consts  --      5.1670                 4.8660                 4.5072
 IR Inten    --    169.3352               148.3780               139.4019

                     58                     59                     60
                      A                      A                      A
 Frequencies --   1330.3542              1356.4612              1361.5155
 Red. masses --      2.9621                 2.4089                 2.2029
 Frc consts  --      3.0888                 2.6115                 2.4059
 IR Inten    --      4.6652               400.2951               127.9023

                     61                     62                     63
                      A                      A                      A
 Frequencies --   1392.9051              1418.1601              1422.1366
 Red. masses --      3.0647                 1.3535                 4.5069
 Frc consts  --      3.5033                 1.6039                 5.3704
 IR Inten    --    320.6886                29.6920                24.5801

                     64                     65                     66
                      A                      A                      A
 Frequencies --   1428.8452              1440.4234              1453.1471
 Red. masses --      5.0583                 3.8114                 4.6374
 Frc consts  --      6.0845                 4.6592                 5.7695
 IR Inten    --    185.5520                19.3797               141.9961

                     67                     68                     69
                      A                      A                      A
 Frequencies --   1473.5276              1473.8106              1483.8914
 Red. masses --      3.6931                 1.0430                 2.4208
 Frc consts  --      4.7245                 1.3348                 3.1406
 IR Inten    --    104.1443                 9.1364               253.5472

                     70                     71                     72
                      A                      A                      A
 Frequencies --   1496.1781              1515.4276              1599.4911
 Red. masses --      1.2735                 2.3520                 2.7719
 Frc consts  --      1.6796                 3.1825                 4.1783
 IR Inten    --     33.2929               131.5859                36.8905

                     73                     74                     75
                      A                      A                      A
 Frequencies --   1606.2745              1611.2902              1629.9691
 Red. masses --      3.3089                 5.6488                 4.4429
 Frc consts  --      5.0300                 8.6408                 6.9546
 IR Inten    --    161.4250               422.7045               142.5175

                     76                     77                     78
                      A                      A                      A
 Frequencies --   1643.4085              1677.7930              3035.2229
 Red. masses --      3.9598                 7.8172                 1.0362
 Frc consts  --      6.3011                12.9651                 5.6242
 IR Inten    --     33.7679                13.9526                16.3755

                     79                     80                     81
                      A                      A                      A
 Frequencies --   3085.0735              3121.0790              3185.7445
 Red. masses --      1.0992                 1.1027                 1.0912
 Frc consts  --      6.1641                 6.3287                 6.5248
 IR Inten    --      7.1697                16.9820                 4.1335

                     82                     83                     84
                      A                      A                      A
 Frequencies --   3189.3152              3202.9763              3307.3438
 Red. masses --      1.0882                 1.0960                 1.0671
 Frc consts  --      6.5216                 6.6245                 6.8773
 IR Inten    --      1.2030                 2.2588               177.7923

                     85                     86                     87
                      A                      A                      A
 Frequencies --   3327.5590              3358.8902              3363.8623
 Red. masses --      1.0664                 1.0687                 1.0681
 Frc consts  --      6.9573                 7.1037                 7.1207
 IR Inten    --    247.1558                27.8193                95.2239

 - Thermochemistry -
 -------------------
 Temperature   298.150 Kelvin.  Pressure   1.00000 Atm.
 Atom     1 has atomic number  6 and mass  12.00000

 Molecular mass:   286.04774 amu.
 Principal axes and moments of inertia in atomic units:
                           1         2         3
     Eigenvalues --  3494.081536795.99049**********
           X            0.99858   0.03277   0.04196
           Y           -0.02531   0.98555  -0.16750
           Z           -0.04684   0.16620   0.98498
 This molecule is an asymmetric top.
 Rotational symmetry number  1.
 Warning -- assumption of classical behavior for rotation
           may cause significant error
 Rotational temperatures (Kelvin)      0.02479     0.01274     0.00843
 Rotational constants (GHZ):           0.51651     0.26556     0.17558
 Zero-point vibrational energy     591150.6 (Joules/Mol)
                                  141.28838 (Kcal/Mol)
 Warning -- explicit consideration of  28 degrees of freedom as
           vibrations may cause significant error
 Vibrational temperatures:     65.98    95.93   165.06   186.74   203.03
          (Kelvin)            220.57   245.14   272.02   313.36   377.44
                              396.63   433.44   462.94   525.05   558.77
                              578.53   599.55   621.12   623.12   662.58
                              672.36   687.33   712.29   715.96   770.87
                              782.12   813.70   890.54   915.11   972.87
                              973.25  1001.89  1039.58  1053.41  1093.77
                             1127.57  1138.51  1139.49  1160.05  1162.16
                             1234.04  1246.72  1299.57  1350.01  1410.13
                             1429.90  1435.79  1505.46  1521.79  1582.95
                             1667.17  1730.26  1747.26  1793.66  1855.19
                             1867.66  1897.99  1914.08  1951.65  1958.92
                             2004.08  2040.42  2046.14  2055.79  2072.45
                             2090.75  2120.08  2120.48  2134.99  2152.67
                             2180.36  2301.31  2311.07  2318.29  2345.16
                             2364.50  2413.97  4367.01  4438.73  4490.54
                             4583.58  4588.71  4608.37  4758.53  4787.62
                             4832.69  4839.85

 Zero-point correction=                           0.225157 (Hartree/Particle)
 Thermal correction to Energy=                    0.241344
 Thermal correction to Enthalpy=                  0.242288
 Thermal correction to Gibbs Free Energy=         0.182340
 Sum of electronic and zero-point Energies=          -1029.092039
 Sum of electronic and thermal Energies=             -1029.075852
 Sum of electronic and thermal Enthalpies=           -1029.074908
 Sum of electronic and thermal Free Energies=        -1029.134856

                     E (Thermal)             CV                S
                      KCal/Mol        Cal/Mol-Kelvin    Cal/Mol-Kelvin
 Total                  151.446             65.663            126.172
 Electronic               0.000              0.000              0.000
 Translational            0.889              2.981             42.851
 Rotational               0.889              2.981             33.856
 Vibrational            149.668             59.702             49.465
 Vibration     1          0.595              1.979              4.988
 Vibration     2          0.598              1.970              4.249
 Vibration     3          0.608              1.937              3.187
 Vibration     4          0.612              1.923              2.949
 Vibration     5          0.615              1.912              2.789
 Vibration     6          0.619              1.899              2.631
 Vibration     7          0.625              1.879              2.431
 Vibration     8          0.633              1.855              2.237
 Vibration     9          0.646              1.814              1.977
 Vibration    10          0.670              1.742              1.646
 Vibration    11          0.677              1.718              1.560
 Vibration    12          0.693              1.671              1.410
 Vibration    13          0.707              1.632              1.301
 Vibration    14          0.738              1.544              1.101
 Vibration    15          0.757              1.495              1.006
 Vibration    16          0.768              1.466              0.955
 Vibration    17          0.780              1.434              0.903
 Vibration    18          0.793              1.401              0.853
 Vibration    19          0.794              1.398              0.849
 Vibration    20          0.818              1.338              0.765
 Vibration    21          0.825              1.323              0.745
 Vibration    22          0.834              1.299              0.716
 Vibration    23          0.851              1.261              0.671
 Vibration    24          0.853              1.255              0.664
 Vibration    25          0.891              1.171              0.574
 Vibration    26          0.899              1.154              0.558
 Vibration    27          0.921              1.106              0.513
 Vibration    28          0.979              0.992              0.418

 Optimization completed.
    -- Stationary point found.
 Normal termination of Gaussian 16 at Sun Jan  7 07:59:54 2024.
