 Gaussian 16, Revision A.03,
 Gaussian 16:  ES64L-G16RevA.03 25-Dec-2016

 ----------------------------------------------------------------------
 #P UB3LYP/6-311++G(d,p) nosym opt freq SCRF=(PCM,Solvent=n,n-DiMethylF
 ormamide)
 ----------------------------------------------------------------------

 --------
 Oxidized
 --------
 Symbolic Z-matrix:
 Charge =  0 Multiplicity = 1

 SCF Done:  E(UB3LYP) =  -1140.48711321     A.U. after   15 cycles
 SCF Done:  E(UB3LYP) =  -1140.48723967     A.U. after   11 cycles
 SCF Done:  E(UB3LYP) =  -1140.48725108     A.U. after   10 cycles
 SCF Done:  E(UB3LYP) =  -1140.48725293     A.U. after   10 cycles
 SCF Done:  E(UB3LYP) =  -1140.48725514     A.U. after    9 cycles
 SCF Done:  E(UB3LYP) =  -1140.48725531     A.U. after    9 cycles
 Optimization completed.
    -- Stationary point found.
 Normal termination of Gaussian 16 at Sat Feb 10 22:43:00 2024.

 ----------------------------------------------------------------------
 #P Geom=AllCheck Guess=TCheck SCRF=Check GenChk UB3LYP/6-311++G(d,p) F
 req
 ----------------------------------------------------------------------

 Structure from the checkpoint file:  "208.chk"
 --------
 Oxidized
 --------
 Charge =  0 Multiplicity = 1

                          Input orientation:
 ---------------------------------------------------------------------
 Center     Atomic      Atomic             Coordinates (Angstroms)
 Number     Number       Type             X           Y           Z
 ---------------------------------------------------------------------
      1          8           0        4.585383    1.522276   -1.400453
      2          6           0        3.520707    0.951627   -0.787927
      3          6           0        2.236928    1.191142   -1.284612
      4          6           0        1.133901    0.615163   -0.669931
      5          6           0       -0.216798    0.879746   -1.207210
      6          8           0       -0.379848    1.610521   -2.203071
      7          6           0       -1.357944    0.260400   -0.537652
      8          6           0       -2.658199    0.493881   -1.021479
      9          8           0       -2.921463    1.269659   -2.090103
     10          6           0       -3.774972   -0.084638   -0.396951
     11          8           0       -5.023958    0.145264   -0.865946
     12          6           0       -3.593260   -0.904640    0.720814
     13          8           0       -4.709164   -1.433085    1.280667
     14          6           0       -2.304241   -1.144347    1.208234
     15          6           0       -1.197703   -0.573254    0.594349
     16          6           0        0.151061   -0.840214    1.131173
     17          8           0        0.312848   -1.573414    2.126421
     18          6           0        1.292367   -0.220069    0.463863
     19          6           0        2.591075   -0.454108    0.954583
     20          8           0        2.854481   -1.229487    2.022293
     21          6           0        3.698237    0.132501    0.327698
     22          8           0        4.965974   -0.068812    0.771463
     23          1           0        5.399031    1.263927   -0.943639
     24          1           0        2.108974    1.827459   -2.150076
     25          1           0       -2.045583    1.603327   -2.417550
     26          1           0       -4.959957    0.729482   -1.636514
     27          1           0       -4.476225   -1.973423    2.046179
     28          1           0       -2.161631   -1.780279    2.073717
     29          1           0        1.978131   -1.565613    2.346464
     30          1           0        4.951849   -0.650992    1.545197
 ---------------------------------------------------------------------

 SCF Done:  E(UB3LYP) =  -1140.48725531     A.U. after    1 cycles

 Alpha  occ. eigenvalues --  -19.18598 -19.18085 -19.18066 -19.17908 -19.17360
 Alpha  occ. eigenvalues --  -19.17322 -19.13950 -19.13909 -10.29090 -10.29061
 Alpha  occ. eigenvalues --  -10.27339 -10.27193 -10.27003 -10.26914 -10.26386
 Alpha  occ. eigenvalues --  -10.26287 -10.21453 -10.21427 -10.21041 -10.21025
 Alpha  occ. eigenvalues --  -10.20302 -10.20075  -1.11489  -1.11133  -1.09586
 Alpha  occ. eigenvalues --   -1.09489  -1.08009  -1.07915  -1.06059  -1.05971
 Alpha  occ. eigenvalues --   -0.89917  -0.88212  -0.81646  -0.78436  -0.77577
 Alpha  occ. eigenvalues --   -0.77433  -0.70601  -0.69556  -0.67442  -0.66655
 Alpha  occ. eigenvalues --   -0.63088  -0.60490  -0.59319  -0.58417  -0.57115
 Alpha  occ. eigenvalues --   -0.56464  -0.54157  -0.52884  -0.52285  -0.51075
 Alpha  occ. eigenvalues --   -0.49047  -0.48465  -0.47883  -0.47444  -0.46674
 Alpha  occ. eigenvalues --   -0.45390  -0.44831  -0.44482  -0.44159  -0.43551
 Alpha  occ. eigenvalues --   -0.41845  -0.41763  -0.40915  -0.40508  -0.40382
 Alpha  occ. eigenvalues --   -0.39683  -0.39581  -0.39296  -0.38743  -0.38677
 Alpha  occ. eigenvalues --   -0.34533  -0.34201  -0.30210  -0.28866  -0.26442
 Alpha  occ. eigenvalues --   -0.25742  -0.24494  -0.24072
 Alpha virt. eigenvalues --   -0.12304  -0.06584  -0.02587  -0.01746  -0.01501
 Alpha virt. eigenvalues --   -0.01331   0.00170   0.01078   0.01230   0.03193
 Alpha virt. eigenvalues --    0.03339   0.03615   0.03968   0.04203   0.05082

  Beta  occ. eigenvalues --  -19.18598 -19.18085 -19.18066 -19.17908 -19.17360
  Beta  occ. eigenvalues --  -19.17322 -19.13950 -19.13909 -10.29090 -10.29061
  Beta  occ. eigenvalues --  -10.27339 -10.27193 -10.27003 -10.26914 -10.26386
  Beta  occ. eigenvalues --  -10.26287 -10.21453 -10.21427 -10.21041 -10.21025
  Beta  occ. eigenvalues --  -10.20302 -10.20075  -1.11489  -1.11133  -1.09586
  Beta  occ. eigenvalues --   -1.09489  -1.08009  -1.07915  -1.06059  -1.05971
  Beta  occ. eigenvalues --   -0.89917  -0.88212  -0.81646  -0.78436  -0.77577
  Beta  occ. eigenvalues --   -0.77433  -0.70601  -0.69556  -0.67442  -0.66655
  Beta  occ. eigenvalues --   -0.63088  -0.60490  -0.59319  -0.58417  -0.57115
  Beta  occ. eigenvalues --   -0.56464  -0.54157  -0.52884  -0.52285  -0.51075
  Beta  occ. eigenvalues --   -0.49047  -0.48465  -0.47883  -0.47444  -0.46674
  Beta  occ. eigenvalues --   -0.45390  -0.44831  -0.44482  -0.44159  -0.43551
  Beta  occ. eigenvalues --   -0.41845  -0.41763  -0.40915  -0.40508  -0.40382
  Beta  occ. eigenvalues --   -0.39683  -0.39581  -0.39296  -0.38743  -0.38677
  Beta  occ. eigenvalues --   -0.34533  -0.34201  -0.30210  -0.28866  -0.26442
  Beta  occ. eigenvalues --   -0.25742  -0.24494  -0.24072
  Beta virt. eigenvalues --   -0.12304  -0.06584  -0.02587  -0.01746  -0.01501
  Beta virt. eigenvalues --   -0.01331   0.00170   0.01078   0.01230   0.03193
  Beta virt. eigenvalues --    0.03339   0.03615   0.03968   0.04203   0.05082

 Mulliken charges and spin densities:
               1          2
     1  O   -0.254563  -0.000000
     2  C   -0.427543   0.000000
     3  C   -0.237381   0.000000
     4  C    0.695129  -0.000000
     5  C   -0.684005  -0.000000
     6  O   -0.333165   0.000000
     7  C    0.697412  -0.000000
     8  C   -0.055063   0.000000
     9  O   -0.384028  -0.000000
    10  C   -0.218595   0.000000
    11  O   -0.286009  -0.000000
    12  C   -0.437453  -0.000000
    13  O   -0.265965   0.000000
    14  C    0.073909  -0.000000
    15  C    0.760148  -0.000000
    16  C   -0.551682   0.000000
    17  O   -0.340746  -0.000000
    18  C    0.607108   0.000000
    19  C   -0.063312  -0.000000
    20  O   -0.374033   0.000000
    21  C   -0.030028  -0.000000
    22  O   -0.307934   0.000000
    23  H    0.314970   0.000000
    24  H    0.209739   0.000000
    25  H    0.371379   0.000000
    26  H    0.325184  -0.000000
    27  H    0.319065   0.000000
    28  H    0.186823  -0.000000
    29  H    0.361232  -0.000000
    30  H    0.329406  -0.000000
 Sum of Mulliken charges =  -0.00000  -0.00000

 Dipole moment (field-independent basis, Debye):
    X=              2.1731    Y=             -1.6310    Z=              2.5086  Tot=              3.6980
 Quadrupole moment (field-independent basis, Debye-Ang):
   XX=           -120.0619   YY=           -125.8755   ZZ=           -125.6347
   XY=              0.6898   XZ=             -0.1723   YZ=             -0.3059

  Exact polarizability: 483.401  29.457 203.685   9.625-104.208 262.489
 Approx polarizability: 532.442  27.488 257.723  15.798-145.859 341.767

                      1                      2                      3
                      A                      A                      A
 Frequencies --     37.0723                63.5421               101.0856
 Red. masses --      9.9407                 7.6734                11.1131
 Frc consts  --      0.0080                 0.0183                 0.0669
 IR Inten    --      0.8532                 0.2163                 0.0261

                      4                      5                      6
                      A                      A                      A
 Frequencies --    126.2311               136.0856               149.5943
 Red. masses --      8.3908                10.8841                 7.4516
 Frc consts  --      0.0788                 0.1188                 0.0982
 IR Inten    --      0.3834                 0.1204                 2.9093

                      7                      8                      9
                      A                      A                      A
 Frequencies --    158.2465               189.8989               257.5520
 Red. masses --      9.6817                 9.7033                 7.3318
 Frc consts  --      0.1428                 0.2062                 0.2865
 IR Inten    --      0.0523                 3.1608                 4.1933

                     10                     11                     12
                      A                      A                      A
 Frequencies --    261.6751               273.5476               279.5785
 Red. masses --      6.9924                 4.5400                 5.4252
 Frc consts  --      0.2821                 0.2002                 0.2498
 IR Inten    --      1.8578                20.2641                19.1833

                     13                     14                     15
                      A                      A                      A
 Frequencies --    291.2017               307.4643               313.7150
 Red. masses --      5.4645                 1.1743                 6.2647
 Frc consts  --      0.2730                 0.0654                 0.3633
 IR Inten    --      6.8519               275.9635                28.0720

                     16                     17                     18
                      A                      A                      A
 Frequencies --    339.7425               340.5159               360.3608
 Red. masses --      4.0340                 4.4299                 6.9122
 Frc consts  --      0.2743                 0.3026                 0.5289
 IR Inten    --     27.4819                18.8179                 3.1109

                     19                     20                     21
                      A                      A                      A
 Frequencies --    368.1238               370.8714               388.4736
 Red. masses --      3.9854                 9.1692                 1.1299
 Frc consts  --      0.3182                 0.7431                 0.1005
 IR Inten    --    100.6657                 2.7903                 0.4290

                     22                     23                     24
                      A                      A                      A
 Frequencies --    410.2939               412.0909               417.8955
 Red. masses --      1.6057                13.0821                 1.1032
 Frc consts  --      0.1593                 1.3089                 0.1135
 IR Inten    --    226.3927                47.0945                61.4631

                     25                     26                     27
                      A                      A                      A
 Frequencies --    454.0111               473.8438               511.0208
 Red. masses --      7.5694                12.9298                 8.3182
 Frc consts  --      0.9193                 1.7105                 1.2798
 IR Inten    --     40.1636                 0.0323                 0.1241

                     28                     29                     30
                      A                      A                      A
 Frequencies --    530.1055               543.1879               572.7615
 Red. masses --     10.0361                10.5472                 6.2006
 Frc consts  --      1.6616                 1.8335                 1.1985
 IR Inten    --      3.4071                 2.4228                 0.5779

                     31                     32                     33
                      A                      A                      A
 Frequencies --    602.2173               619.6376               626.5988
 Red. masses --      5.4876                 9.7973                 5.7285
 Frc consts  --      1.1726                 2.2163                 1.3252
 IR Inten    --      1.0914                 2.8852                23.5904

                     34                     35                     36
                      A                      A                      A
 Frequencies --    644.9216               652.2441               675.4975
 Red. masses --      8.4275                 7.4826                 9.6682
 Frc consts  --      2.0652                 1.8755                 2.5992
 IR Inten    --     49.9612                 3.3751                 0.1728

                     37                     38                     39
                      A                      A                      A
 Frequencies --    685.9240               700.3667               731.8823
 Red. masses --     10.3474                 5.8781                 9.3344
 Frc consts  --      2.8684                 1.6988                 2.9459
 IR Inten    --      0.2997               322.9628                 0.6620

                     40                     41                     42
                      A                      A                      A
 Frequencies --    748.1467               760.6905               767.9698
 Red. masses --      2.2933                 1.1957                 1.3122
 Frc consts  --      0.7563                 0.4077                 0.4560
 IR Inten    --      7.6751                44.1939               271.7142

                     43                     44                     45
                      A                      A                      A
 Frequencies --    789.3242               828.3167               876.1608
 Red. masses --      6.4988                 6.9198                 6.1315
 Frc consts  --      2.3856                 2.7973                 2.7732
 IR Inten    --     59.1150                11.2784                 0.3174

                     46                     47                     48
                      A                      A                      A
 Frequencies --    877.3454               886.7010              1013.0548
 Red. masses --      1.3901                 1.4552                 3.9560
 Frc consts  --      0.6304                 0.6741                 2.3921
 IR Inten    --      6.8964                26.1997               184.7446

                     49                     50                     51
                      A                      A                      A
 Frequencies --   1045.8024              1080.4970              1117.4792
 Red. masses --      4.8580                 7.0376                 3.9058
 Frc consts  --      3.1304                 4.8409                 2.8737
 IR Inten    --     38.0129               402.8261               156.5843

                     52                     53                     54
                      A                      A                      A
 Frequencies --   1184.2863              1188.1337              1201.5257
 Red. masses --      2.9558                 1.5329                 1.5378
 Frc consts  --      2.4425                 1.2749                 1.3080
 IR Inten    --     34.5783               255.1370                91.2804

                     55                     56                     57
                      A                      A                      A
 Frequencies --   1204.9911              1225.6753              1267.5815
 Red. masses --      1.5076                 1.7170                 2.7618
 Frc consts  --      1.2897                 1.5197                 2.6146
 IR Inten    --    377.0667               501.2628               232.9293

                     58                     59                     60
                      A                      A                      A
 Frequencies --   1308.9288              1325.9648              1338.9871
 Red. masses --      4.5271                 4.3598                 2.3260
 Frc consts  --      4.5699                 4.5163                 2.4570
 IR Inten    --   3261.6333               754.4324               310.4133

                     61                     62                     63
                      A                      A                      A
 Frequencies --   1349.4653              1360.1052              1368.8644
 Red. masses --      2.8106                 2.4082                 2.2376
 Frc consts  --      3.0156                 2.6247                 2.4703
 IR Inten    --    409.4521               732.4279               511.1435

                     64                     65                     66
                      A                      A                      A
 Frequencies --   1394.0995              1436.8768              1447.7020
 Red. masses --      3.4435                 5.2196                 4.5889
 Frc consts  --      3.9431                 6.3493                 5.6666
 IR Inten    --      0.3709               361.2157                 2.2187

                     67                     68                     69
                      A                      A                      A
 Frequencies --   1467.3955              1483.3604              1513.1858
 Red. masses --      4.4415                 5.2548                 6.0527
 Frc consts  --      5.6348                 6.8124                 8.1656
 IR Inten    --    487.7864                26.9982                 4.1468

                     70                     71                     72
                      A                      A                      A
 Frequencies --   1528.8923              1595.5635              1610.0366
 Red. masses --      5.3281                 5.6800                 4.0316
 Frc consts  --      7.3379                 8.5198                 6.1574
 IR Inten    --    203.8229                69.2083              1032.9896

                     73                     74                     75
                      A                      A                      A
 Frequencies --   1623.8934              1635.8379              1654.2282
 Red. masses --      4.9681                 6.1170                 8.1211
 Frc consts  --      7.7188                 9.6442                13.0935
 IR Inten    --    146.2521               345.2295               127.8735

                     76                     77                     78
                      A                      A                      A
 Frequencies --   1664.2912              3192.4168              3213.0111
 Red. masses --      7.1438                 1.0909                 1.0912
 Frc consts  --     11.6583                 6.5507                 6.6371
 IR Inten    --      3.3041                 6.9480                 2.7225

                     79                     80                     81
                      A                      A                      A
 Frequencies --   3238.4126              3242.7383              3745.9443
 Red. masses --      1.0687                 1.0687                 1.0656
 Frc consts  --      6.6034                 6.6208                 8.8100
 IR Inten    --     57.2196              1206.1851               263.3624

                     82                     83                     84
                      A                      A                      A
 Frequencies --   3760.9460              3762.0933              3806.5076
 Red. masses --      1.0659                 1.0660                 1.0665
 Frc consts  --      8.8830                 8.8891                 9.1045
 IR Inten    --    414.4691               126.0003               219.9525

 - Thermochemistry -
 -------------------
 Temperature   298.150 Kelvin.  Pressure   1.00000 Atm.
 Atom     1 has atomic number  8 and mass  15.99491

 Molecular mass:   304.02192 amu.
 Principal axes and moments of inertia in atomic units:
                           1         2         3
     Eigenvalues --  2882.88585********************
           X            0.99658   0.01622  -0.08104
           Y            0.07456  -0.59933   0.79702
           Z            0.03565   0.80034   0.59849
 This molecule is an asymmetric top.
 Rotational symmetry number  1.
 Warning -- assumption of classical behavior for rotation
           may cause significant error
 Rotational temperatures (Kelvin)      0.03004     0.00837     0.00654
 Rotational constants (GHZ):           0.62602     0.17432     0.13635
 Zero-point vibrational energy     535403.7 (Joules/Mol)
                                  127.96456 (Kcal/Mol)
 Warning -- explicit consideration of  32 degrees of freedom as
           vibrations may cause significant error
 Vibrational temperatures:     53.34    91.42   145.44   181.62   195.80
          (Kelvin)            215.23   227.68   273.22   370.56   376.49
                              393.57   402.25   418.97   442.37   451.37
                              488.81   489.93   518.48   529.65   533.60
                              558.93   590.32   592.91   601.26   653.22
                              681.76   735.24   762.70   781.53   824.08
                              866.46   891.52   901.54   927.90   938.43
                              971.89   986.89  1007.67  1053.02  1076.42
                             1094.46  1104.94  1135.66  1191.76  1260.60
                             1262.30  1275.76  1457.56  1504.68  1554.59
                             1607.80  1703.92  1709.46  1728.73  1733.71
                             1763.47  1823.77  1883.26  1907.77  1926.50
                             1941.58  1956.89  1969.49  2005.80  2067.35
                             2082.92  2111.25  2134.22  2177.14  2199.74
                             2295.66  2316.48  2336.42  2353.61  2380.07
                             2394.54  4593.18  4622.81  4659.35  4665.58
                             5389.58  5411.16  5412.81  5476.72

 Zero-point correction=                           0.203925 (Hartree/Particle)
 Thermal correction to Energy=                    0.221838
 Thermal correction to Enthalpy=                  0.222782
 Thermal correction to Gibbs Free Energy=         0.159399
 Sum of electronic and zero-point Energies=          -1140.283331
 Sum of electronic and thermal Energies=             -1140.265417
 Sum of electronic and thermal Enthalpies=           -1140.264473
 Sum of electronic and thermal Free Energies=        -1140.327856

                     E (Thermal)             CV                S
                      KCal/Mol        Cal/Mol-Kelvin    Cal/Mol-Kelvin
 Total                  139.206             71.527            133.401
 Electronic               0.000              0.000              0.000
 Translational            0.889              2.981             43.032
 Rotational               0.889              2.981             34.334
 Vibrational            137.428             65.566             56.034
 Vibration     1          0.594              1.982              5.410
 Vibration     2          0.597              1.972              4.344
 Vibration     3          0.604              1.948              3.433
 Vibration     4          0.611              1.927              3.003
 Vibration     5          0.614              1.917              2.858
 Vibration     6          0.618              1.903              2.677
 Vibration     7          0.621              1.893              2.571
 Vibration     8          0.633              1.854              2.229
 Vibration     9          0.667              1.750              1.678
 Vibration    10          0.669              1.743              1.651
 Vibration    11          0.676              1.722              1.574
 Vibration    12          0.680              1.711              1.536
 Vibration    13          0.687              1.690              1.467
 Vibration    14          0.697              1.660              1.376
 Vibration    15          0.702              1.648              1.343
 Vibration    16          0.720              1.596              1.213
 Vibration    17          0.720              1.595              1.210
 Vibration    18          0.735              1.554              1.121
 Vibration    19          0.741              1.538              1.088
 Vibration    20          0.743              1.532              1.076
 Vibration    21          0.757              1.495              1.006
 Vibration    22          0.774              1.448              0.926
 Vibration    23          0.776              1.444              0.919
 Vibration    24          0.781              1.431              0.899
 Vibration    25          0.812              1.352              0.784
 Vibration    26          0.831              1.308              0.727
 Vibration    27          0.866              1.226              0.631
 Vibration    28          0.885              1.183              0.587
 Vibration    29          0.898              1.155              0.558
 Vibration    30          0.929              1.090              0.499
 Vibration    31          0.961              1.027              0.446
 Vibration    32          0.980              0.990              0.417

 Optimization completed.
    -- Stationary point found.
 Normal termination of Gaussian 16 at Sun Feb 11 00:15:24 2024.
