 Gaussian 16, Revision A.03,
 Gaussian 16:  ES64L-G16RevA.03 25-Dec-2016

 ----------------------------------------------------------------
 #P UB3LYP/6-311++G(d,p) SCRF=(PCM,Solvent=n,n-DiMethylFormamide)
 ----------------------------------------------------------------

 -------
 Reduced
 -------
 Symbolic Z-matrix:
 Charge = -2 Multiplicity = 1

                         Standard orientation:
 ---------------------------------------------------------------------
 Center     Atomic      Atomic             Coordinates (Angstroms)
 Number     Number       Type             X           Y           Z
 ---------------------------------------------------------------------
      1          6           0       -3.982008   -0.011670   -0.330777
      2          6           0       -2.718204   -0.527706    0.323530
      3          8           0       -2.578194   -0.652694    1.520233
      4          8           0       -1.556173    1.783600   -0.288384
      5          6           0       -0.290806    1.597205   -0.167845
      6          6           0        0.616001    2.684029   -0.036060
      7          6           0        1.999173    2.505618    0.119842
      8          6           0        2.562385    1.242013    0.150305
      9          6           0        1.739813    0.095858    0.013691
     10          6           0        2.399663   -1.233140    0.031687
     11          8           0        3.665037   -1.349350    0.179744
     12          6           0        1.531486   -2.344298   -0.133366
     13          6           0        0.144777   -2.188909   -0.301871
     14          6           0       -0.441951   -0.945018   -0.305869
     15          8           0       -1.833208   -0.890248   -0.619749
     16          6           0        0.319899    0.248632   -0.152436
     17          1           0       -3.742670    1.001072   -0.664832
     18          1           0       -4.801255    0.001811    0.390655
     19          1           0       -4.244947   -0.618211   -1.202444
     20          1           0        0.179604    3.681270   -0.047529
     21          1           0        2.639156    3.384669    0.222721
     22          1           0        3.626887    1.079714    0.270934
     23          1           0        1.976582   -3.337192   -0.128797
     24          1           0       -0.494410   -3.059293   -0.440438
 ---------------------------------------------------------------------

 SCF Done:  E(UB3LYP) =  -763.471957422     A.U. after   16 cycles

 The electronic state is 1-A.
 Alpha  occ. eigenvalues --  -19.14901 -19.10121 -19.02893 -19.02769 -10.29369
 Alpha  occ. eigenvalues --  -10.19225 -10.19189 -10.18795 -10.15881 -10.14923
 Alpha  occ. eigenvalues --  -10.14580 -10.14387 -10.14277 -10.12574 -10.12501
 Alpha  occ. eigenvalues --  -10.12353  -1.09103  -1.01192  -0.94802  -0.94620
 Alpha  occ. eigenvalues --   -0.81969  -0.78192  -0.73939  -0.70727  -0.69475
 Alpha  occ. eigenvalues --   -0.66525  -0.59431  -0.58635  -0.56807  -0.50341
 Alpha  occ. eigenvalues --   -0.48238  -0.48049  -0.46713  -0.46606  -0.45111
 Alpha  occ. eigenvalues --   -0.42449  -0.41717  -0.40038  -0.39281  -0.38333
 Alpha  occ. eigenvalues --   -0.37485  -0.37280  -0.36458  -0.35829  -0.35201
 Alpha  occ. eigenvalues --   -0.33788  -0.32278  -0.31752  -0.30059  -0.28082
 Alpha  occ. eigenvalues --   -0.27967  -0.27019  -0.22043  -0.21157  -0.19547
 Alpha  occ. eigenvalues --   -0.17929  -0.13701
 Alpha virt. eigenvalues --    0.00202   0.00345   0.00952   0.00984   0.01331
 Alpha virt. eigenvalues --    0.01965   0.02744   0.03412   0.03897   0.04167
 Alpha virt. eigenvalues --    0.05549   0.05778   0.05996   0.06590   0.07325

  Beta  occ. eigenvalues --  -19.14901 -19.10121 -19.02893 -19.02769 -10.29369
  Beta  occ. eigenvalues --  -10.19225 -10.19189 -10.18795 -10.15881 -10.14923
  Beta  occ. eigenvalues --  -10.14580 -10.14387 -10.14277 -10.12574 -10.12501
  Beta  occ. eigenvalues --  -10.12353  -1.09103  -1.01192  -0.94802  -0.94620
  Beta  occ. eigenvalues --   -0.81969  -0.78192  -0.73939  -0.70727  -0.69475
  Beta  occ. eigenvalues --   -0.66525  -0.59431  -0.58635  -0.56807  -0.50341
  Beta  occ. eigenvalues --   -0.48238  -0.48049  -0.46713  -0.46606  -0.45111
  Beta  occ. eigenvalues --   -0.42449  -0.41717  -0.40038  -0.39281  -0.38333
  Beta  occ. eigenvalues --   -0.37485  -0.37280  -0.36458  -0.35829  -0.35201
  Beta  occ. eigenvalues --   -0.33788  -0.32278  -0.31752  -0.30059  -0.28082
  Beta  occ. eigenvalues --   -0.27967  -0.27019  -0.22043  -0.21157  -0.19547
  Beta  occ. eigenvalues --   -0.17929  -0.13701
  Beta virt. eigenvalues --    0.00202   0.00345   0.00952   0.00984   0.01331
  Beta virt. eigenvalues --    0.01965   0.02744   0.03412   0.03897   0.04167
  Beta virt. eigenvalues --    0.05549   0.05778   0.05996   0.06590   0.07325

 Mulliken charges and spin densities:
               1          2
     1  C   -0.452479   0.000000
     2  C    0.098805   0.000000
     3  O   -0.345206  -0.000000
     4  O   -0.615636   0.000000
     5  C   -0.092343  -0.000000
     6  C   -0.284512   0.000000
     7  C   -0.339985   0.000000
     8  C   -0.164243  -0.000000
     9  C    0.371100  -0.000000
    10  C   -0.602027  -0.000000
    11  O   -0.641856  -0.000000
    12  C   -0.105584  -0.000000
    13  C    0.037010  -0.000000
    14  C   -0.731205  -0.000000
    15  O   -0.041256   0.000000
    16  C    0.672025   0.000000
    17  H    0.202071   0.000000
    18  H    0.146404  -0.000000
    19  H    0.158891  -0.000000
    20  H    0.134102   0.000000
    21  H    0.154325   0.000000
    22  H    0.135465  -0.000000
    23  H    0.141602   0.000000
    24  H    0.164531   0.000000
 Sum of Mulliken charges =  -2.00000  -0.00000

 Dipole moment (field-independent basis, Debye):
    X=             -8.6606    Y=             -0.4524    Z=             -2.2886  Tot=              8.9693
 Quadrupole moment (field-independent basis, Debye-Ang):
   XX=           -158.9785   YY=           -123.1191   ZZ=           -110.6085
   XY=             20.6613   XZ=              4.0468   YZ=              4.0891

 Normal termination of Gaussian 16 at Sun Jan 21 08:53:03 2024.
