 Gaussian 16, Revision A.03,
 Gaussian 16:  ES64L-G16RevA.03 25-Dec-2016

 ----------------------------------------------------------------------
 #P UB3LYP/6-311++G(d,p) nosym opt freq SCRF=(PCM,Solvent=n,n-DiMethylF
 ormamide)
 ----------------------------------------------------------------------

 -------
 Reduced
 -------
 Symbolic Z-matrix:
 Charge = -2 Multiplicity = 1

 SCF Done:  E(UB3LYP) =  -881.149903431     A.U. after   20 cycles
 SCF Done:  E(UB3LYP) =  -881.153206079     A.U. after   15 cycles
 SCF Done:  E(UB3LYP) =  -881.154099674     A.U. after   15 cycles
 SCF Done:  E(UB3LYP) =  -881.154141385     A.U. after   14 cycles
 SCF Done:  E(UB3LYP) =  -881.154251727     A.U. after   13 cycles
 SCF Done:  E(UB3LYP) =  -881.154322093     A.U. after   14 cycles
 SCF Done:  E(UB3LYP) =  -881.154385036     A.U. after   14 cycles
 SCF Done:  E(UB3LYP) =  -881.154404808     A.U. after   13 cycles
 SCF Done:  E(UB3LYP) =  -881.154430944     A.U. after   14 cycles
 SCF Done:  E(UB3LYP) =  -881.154444764     A.U. after   14 cycles
 SCF Done:  E(UB3LYP) =  -881.154447043     A.U. after   12 cycles
 SCF Done:  E(UB3LYP) =  -881.154447618     A.U. after   11 cycles
 SCF Done:  E(UB3LYP) =  -881.154447955     A.U. after   11 cycles
 SCF Done:  E(UB3LYP) =  -881.154447984     A.U. after   10 cycles
 Optimization completed.
    -- Stationary point found.
 Normal termination of Gaussian 16 at Sun Feb 11 17:46:37 2024.

 ----------------------------------------------------------------------
 #P Geom=AllCheck Guess=TCheck SCRF=Check GenChk UB3LYP/6-311++G(d,p) F
 req
 ----------------------------------------------------------------------

 Structure from the checkpoint file:  "328-an.chk"
 -------
 Reduced
 -------
 Charge = -2 Multiplicity = 1

                          Input orientation:
 ---------------------------------------------------------------------
 Center     Atomic      Atomic             Coordinates (Angstroms)
 Number     Number       Type             X           Y           Z
 ---------------------------------------------------------------------
      1          6           0       -1.221042    2.618729   -0.670328
      2          6           0       -2.275790    1.988761   -0.064888
      3          6           0       -2.132497    0.657469    0.438837
      4          6           0        0.051312    1.973168   -0.819176
      5          6           0        0.193385    0.623976   -0.306228
      6          6           0       -0.932922    0.003867    0.317465
      7          6           0        1.145617    2.587174   -1.430560
      8          6           0        2.403012    1.962575   -1.580231
      9          6           0        2.531868    0.601082   -1.051732
     10          6           0        1.432097   -0.015121   -0.441341
     11          6           0        3.486650    2.664416   -2.227204
     12          6           0        4.750846    1.970658   -2.326891
     13          6           0        4.836399    0.633882   -1.791534
     14          6           0        3.794115   -0.035443   -1.185674
     15          8           0        3.320267    3.877240   -2.692399
     16          8           0        5.806395    2.502234   -2.875841
     17          1           0       -1.334149    3.629834   -1.051553
     18          1           0       -3.228974    2.497348    0.036572
     19          1           0       -2.976538    0.171169    0.916011
     20          1           0       -0.820470   -1.007138    0.699765
     21          1           0        1.043193    3.596494   -1.814566
     22          1           0        1.544906   -1.023620   -0.057975
     23          1           0        5.807261    0.160215   -1.891478
     24          8           0        3.883813   -1.326306   -0.665687
     25          6           0        5.083466   -2.060492   -0.902077
     26          6           0        4.887041   -3.454757   -0.389265
     27          6           0        5.701420   -4.055664    0.475634
     28          1           0        5.937036   -1.583644   -0.404990
     29          1           0        5.291611   -2.082925   -1.981278
     30          1           0        4.025801   -3.986226   -0.788283
     31          1           0        6.565126   -3.545444    0.891924
     32          1           0        5.537724   -5.080007    0.791702
 ---------------------------------------------------------------------

 SCF Done:  E(UB3LYP) =  -881.154447984     A.U. after    1 cycles

 Alpha  occ. eigenvalues --  -19.13328 -19.01728 -19.00963 -10.22008 -10.19442
 Alpha  occ. eigenvalues --  -10.17871 -10.16972 -10.16781 -10.16320 -10.16165
 Alpha  occ. eigenvalues --  -10.16072 -10.16058 -10.16020 -10.15878 -10.15838
 Alpha  occ. eigenvalues --  -10.15334 -10.15251 -10.14211 -10.14067 -10.13272
 Alpha  occ. eigenvalues --   -1.04228  -0.93341  -0.90232  -0.85408  -0.81551
 Alpha  occ. eigenvalues --   -0.79145  -0.76152  -0.75601  -0.71206  -0.70304
 Alpha  occ. eigenvalues --   -0.68564  -0.63824  -0.61446  -0.58401  -0.57527
 Alpha  occ. eigenvalues --   -0.56477  -0.54339  -0.50871  -0.49942  -0.49195
 Alpha  occ. eigenvalues --   -0.48235  -0.46020  -0.44628  -0.43649  -0.42827
 Alpha  occ. eigenvalues --   -0.41825  -0.41125  -0.40099  -0.39514  -0.38361
 Alpha  occ. eigenvalues --   -0.37717  -0.36510  -0.36362  -0.35752  -0.35172
 Alpha  occ. eigenvalues --   -0.33416  -0.33236  -0.32880  -0.31357  -0.30449
 Alpha  occ. eigenvalues --   -0.30327  -0.27980  -0.27314  -0.26442  -0.24185
 Alpha  occ. eigenvalues --   -0.20277  -0.20067  -0.19197  -0.18370  -0.10860
 Alpha virt. eigenvalues --   -0.04142  -0.00869  -0.00058   0.00487   0.00766
 Alpha virt. eigenvalues --    0.01191   0.01618   0.01940   0.02062   0.02797
 Alpha virt. eigenvalues --    0.03434   0.04145   0.04422   0.05138   0.05563

  Beta  occ. eigenvalues --  -19.13328 -19.01728 -19.00963 -10.22008 -10.19442
  Beta  occ. eigenvalues --  -10.17871 -10.16972 -10.16781 -10.16320 -10.16165
  Beta  occ. eigenvalues --  -10.16072 -10.16058 -10.16020 -10.15878 -10.15838
  Beta  occ. eigenvalues --  -10.15334 -10.15251 -10.14211 -10.14067 -10.13272
  Beta  occ. eigenvalues --   -1.04228  -0.93341  -0.90232  -0.85408  -0.81551
  Beta  occ. eigenvalues --   -0.79145  -0.76152  -0.75601  -0.71206  -0.70304
  Beta  occ. eigenvalues --   -0.68564  -0.63824  -0.61446  -0.58401  -0.57527
  Beta  occ. eigenvalues --   -0.56477  -0.54339  -0.50871  -0.49942  -0.49195
  Beta  occ. eigenvalues --   -0.48235  -0.46020  -0.44628  -0.43649  -0.42827
  Beta  occ. eigenvalues --   -0.41825  -0.41125  -0.40099  -0.39514  -0.38361
  Beta  occ. eigenvalues --   -0.37717  -0.36510  -0.36362  -0.35752  -0.35172
  Beta  occ. eigenvalues --   -0.33416  -0.33236  -0.32880  -0.31357  -0.30449
  Beta  occ. eigenvalues --   -0.30327  -0.27980  -0.27314  -0.26442  -0.24185
  Beta  occ. eigenvalues --   -0.20277  -0.20067  -0.19197  -0.18370  -0.10860
  Beta virt. eigenvalues --   -0.04142  -0.00869  -0.00058   0.00487   0.00766
  Beta virt. eigenvalues --    0.01191   0.01618   0.01940   0.02062   0.02797
  Beta virt. eigenvalues --    0.03434   0.04145   0.04422   0.05138   0.05563

 Mulliken charges and spin densities:
               1          2
     1  C   -0.180273   0.000000
     2  C   -0.323115  -0.000000
     3  C   -0.386495  -0.000000
     4  C    0.078408  -0.000000
     5  C    0.043921  -0.000000
     6  C   -0.185061   0.000000
     7  C   -0.080226   0.000000
     8  C    0.517529   0.000000
     9  C    0.157030   0.000000
    10  C   -0.148673   0.000000
    11  C   -0.521283  -0.000000
    12  C   -0.077886   0.000000
    13  C    0.251833   0.000000
    14  C   -0.643037  -0.000000
    15  O   -0.734959   0.000000
    16  O   -0.706133   0.000000
    17  H    0.145851  -0.000000
    18  H    0.168310  -0.000000
    19  H    0.171204   0.000000
    20  H    0.145314  -0.000000
    21  H    0.119720   0.000000
    22  H    0.109768  -0.000000
    23  H    0.181616   0.000000
    24  O   -0.146186   0.000000
    25  C   -0.325065  -0.000000
    26  C    0.045650   0.000000
    27  C   -0.473221  -0.000000
    28  H    0.142269   0.000000
    29  H    0.156025   0.000000
    30  H    0.192894   0.000000
    31  H    0.145395  -0.000000
    32  H    0.158877   0.000000
 Sum of Mulliken charges =  -2.00000  -0.00000

 Dipole moment (field-independent basis, Debye):
    X=            -34.3038    Y=            -25.8309    Z=             21.3721  Tot=             47.9661
 Quadrupole moment (field-independent basis, Debye-Ang):
   XX=           -285.8638   YY=           -203.4176   ZZ=           -186.1724
   XY=           -105.0170   XZ=             93.9932   YZ=             65.1181

  Exact polarizability: 636.949 -18.375 379.074-128.928 -82.184 267.509
 Approx polarizability: 716.385 -13.727 427.488-147.522 -96.453 302.273

                      1                      2                      3
                      A                      A                      A
 Frequencies --     30.1034                54.6316                74.8501
 Red. masses --      4.5952                 3.0312                 4.8971
 Frc consts  --      0.0025                 0.0053                 0.0162
 IR Inten    --      0.2164                 3.5647                 1.7547

                      4                      5                      6
                      A                      A                      A
 Frequencies --     82.4325                91.4417               115.4210
 Red. masses --      3.9726                 3.3126                 3.8493
 Frc consts  --      0.0159                 0.0163                 0.0302
 IR Inten    --      4.9352                 4.3958                 1.6353

                      7                      8                      9
                      A                      A                      A
 Frequencies --    134.5172               185.7502               214.6376
 Red. masses --      5.9303                 5.6260                 7.5361
 Frc consts  --      0.0632                 0.1144                 0.2046
 IR Inten    --      2.9543                 3.6585                10.6088

                     10                     11                     12
                      A                      A                      A
 Frequencies --    245.2158               266.6669               280.6545
 Red. masses --      4.4488                 4.0867                 4.9968
 Frc consts  --      0.1576                 0.1712                 0.2319
 IR Inten    --      0.6388                21.3765                 0.3815

                     13                     14                     15
                      A                      A                      A
 Frequencies --    284.2051               335.6629               385.1762
 Red. masses --      4.3863                 5.5651                 6.5780
 Frc consts  --      0.2087                 0.3694                 0.5750
 IR Inten    --      1.4769                14.8843                 5.4834

                     16                     17                     18
                      A                      A                      A
 Frequencies --    394.4914               408.8765               423.2981
 Red. masses --      4.9337                10.0064                 4.8170
 Frc consts  --      0.4524                 0.9856                 0.5085
 IR Inten    --      1.0711                13.3826                 1.5952

                     19                     20                     21
                      A                      A                      A
 Frequencies --    454.5590               464.8570               509.2550
 Red. masses --      2.8441                 2.5760                 5.6430
 Frc consts  --      0.3462                 0.3280                 0.8622
 IR Inten    --     32.3446                39.5855                38.4317

                     22                     23                     24
                      A                      A                      A
 Frequencies --    543.2942               545.5235               587.4192
 Red. masses --      3.9361                 5.7545                 7.1055
 Frc consts  --      0.6845                 1.0090                 1.4446
 IR Inten    --      0.1764                17.9201                71.7479

                     25                     26                     27
                      A                      A                      A
 Frequencies --    588.4021               605.6772               633.7862
 Red. masses --      3.7941                 3.1150                 4.7895
 Frc consts  --      0.7739                 0.6733                 1.1335
 IR Inten    --      1.6216                58.9399                10.6063

                     28                     29                     30
                      A                      A                      A
 Frequencies --    686.5248               699.6175               720.8051
 Red. masses --      2.7290                 6.5431                 6.3866
 Frc consts  --      0.7578                 1.8869                 1.9550
 IR Inten    --      6.1349                 0.2951                 7.5583

                     31                     32                     33
                      A                      A                      A
 Frequencies --    739.3869               744.5631               751.3056
 Red. masses --      1.6862                 2.9703                 4.4237
 Frc consts  --      0.5431                 0.9702                 1.4712
 IR Inten    --     48.9717                21.9485                22.1054

                     34                     35                     36
                      A                      A                      A
 Frequencies --    767.6767               782.4650               832.0100
 Red. masses --      5.7836                 4.6086                 1.3699
 Frc consts  --      2.0082                 1.6625                 0.5587
 IR Inten    --    136.3333                51.4416                 6.1045

                     37                     38                     39
                      A                      A                      A
 Frequencies --    839.2893               884.6124               892.1973
 Red. masses --      1.4506                 1.4483                 1.4584
 Frc consts  --      0.6021                 0.6677                 0.6840
 IR Inten    --     46.2375                 0.7145                70.0692

                     40                     41                     42
                      A                      A                      A
 Frequencies --    916.3956               939.0103               959.9500
 Red. masses --      5.0491                 1.4367                 1.3231
 Frc consts  --      2.4982                 0.7464                 0.7183
 IR Inten    --     36.7442                 8.8124                90.8089

                     43                     44                     45
                      A                      A                      A
 Frequencies --    961.6731               973.2249               974.9227
 Red. masses --      1.3611                 1.2637                 4.3332
 Frc consts  --      0.7416                 0.7052                 2.4266
 IR Inten    --      7.4732                 0.4547                74.1439

                     46                     47                     48
                      A                      A                      A
 Frequencies --    998.6454              1005.5170              1011.3317
 Red. masses --      2.6076                 2.2884                 2.3869
 Frc consts  --      1.5322                 1.3632                 1.4384
 IR Inten    --     48.8667                15.9382               109.2931

                     49                     50                     51
                      A                      A                      A
 Frequencies --   1032.4245              1091.5636              1137.7208
 Red. masses --      1.2670                 5.1293                 2.9549
 Frc consts  --      0.7957                 3.6009                 2.2535
 IR Inten    --     44.0266               381.5797               988.6884

                     52                     53                     54
                      A                      A                      A
 Frequencies --   1152.5617              1168.7357              1173.0003
 Red. masses --      1.5904                 1.6041                 1.4021
 Frc consts  --      1.2447                 1.2910                 1.1367
 IR Inten    --    213.9727                17.5788               172.2016

                     55                     56                     57
                      A                      A                      A
 Frequencies --   1177.8853              1209.6874              1241.6709
 Red. masses --      1.9980                 2.7350                 1.9393
 Frc consts  --      1.6333                 2.3581                 1.7616
 IR Inten    --     52.8573               277.2158               331.6652

                     58                     59                     60
                      A                      A                      A
 Frequencies --   1263.5390              1267.5321              1276.8520
 Red. masses --      1.1732                 2.6242                 1.7935
 Frc consts  --      1.1035                 2.4841                 1.7228
 IR Inten    --     81.5273               547.0885               120.3321

                     61                     62                     63
                      A                      A                      A
 Frequencies --   1310.4721              1322.0596              1338.0899
 Red. masses --      1.2654                 3.9402                 5.8157
 Frc consts  --      1.2803                 4.0576                 6.1351
 IR Inten    --      3.5727              1244.8548               875.2987

                     64                     65                     66
                      A                      A                      A
 Frequencies --   1354.8428              1382.3944              1391.7426
 Red. masses --      4.0905                 1.5503                 3.1979
 Frc consts  --      4.4239                 1.7455                 3.6495
 IR Inten    --   1349.2725               272.8909               166.1862

                     67                     68                     69
                      A                      A                      A
 Frequencies --   1403.0812              1423.7761              1454.1426
 Red. masses --      3.6200                 2.9764                 1.2654
 Frc consts  --      4.1988                 3.5549                 1.5765
 IR Inten    --    147.1993                 1.8241                39.4742

                     70                     71                     72
                      A                      A                      A
 Frequencies --   1466.6562              1494.3272              1503.7054
 Red. masses --      2.9124                 1.9957                 1.3186
 Frc consts  --      3.6912                 2.6257                 1.7567
 IR Inten    --    237.9544               176.8927                26.9400

                     73                     74                     75
                      A                      A                      A
 Frequencies --   1524.3860              1539.2323              1564.4033
 Red. masses --      6.3554                 5.2432                 6.6102
 Frc consts  --      8.7013                 7.3191                 9.5315
 IR Inten    --     67.7854               477.4277               200.8654

                     76                     77                     78
                      A                      A                      A
 Frequencies --   1592.3915              1634.9722              1700.0089
 Red. masses --      5.7452                 5.7022                 4.7216
 Frc consts  --      8.5833                 8.9808                 8.0398
 IR Inten    --     75.0916                12.5623                 8.7054

                     79                     80                     81
                      A                      A                      A
 Frequencies --   2975.1719              3019.6869              3123.0800
 Red. masses --      1.0593                 1.1008                 1.0588
 Frc consts  --      5.5245                 5.9141                 6.0848
 IR Inten    --     88.3116                63.7670                20.5312

                     82                     83                     84
                      A                      A                      A
 Frequencies --   3137.5778              3139.7304              3143.0660
 Red. masses --      1.0919                 1.0857                 1.0873
 Frc consts  --      6.3333                 6.3059                 6.3284
 IR Inten    --     12.3775                20.6815                 2.3635

                     85                     86                     87
                      A                      A                      A
 Frequencies --   3159.8646              3160.8923              3161.2441
 Red. masses --      1.0908                 1.0881                 1.0895
 Frc consts  --      6.4171                 6.4052                 6.4147
 IR Inten    --     17.0533               114.5570                38.9029

                     88                     89                     90
                      A                      A                      A
 Frequencies --   3166.2690              3175.2747              3209.1238
 Red. masses --      1.0887                 1.0963                 1.1155
 Frc consts  --      6.4308                 6.5126                 6.7684
 IR Inten    --     21.9530                78.0943                20.8835

 - Thermochemistry -
 -------------------
 Temperature   298.150 Kelvin.  Pressure   1.00000 Atm.
 Atom     1 has atomic number  6 and mass  12.00000

 Molecular mass:   264.07864 amu.
 Principal axes and moments of inertia in atomic units:
                           1         2         3
     Eigenvalues --  4155.734747559.83159**********
           X            0.88212   0.37775   0.28137
           Y           -0.46415   0.79879   0.38276
           Z           -0.08016  -0.46823   0.87996
 This molecule is an asymmetric top.
 Rotational symmetry number  1.
 Warning -- assumption of classical behavior for rotation
           may cause significant error
 Rotational temperatures (Kelvin)      0.02084     0.01146     0.00743
 Rotational constants (GHZ):           0.43428     0.23873     0.15486
 Zero-point vibrational energy     629156.6 (Joules/Mol)
                                  150.37204 (Kcal/Mol)
 Warning -- explicit consideration of  26 degrees of freedom as
           vibrations may cause significant error
 Vibrational temperatures:     43.31    78.60   107.69   118.60   131.56
          (Kelvin)            166.07   193.54   267.25   308.82   352.81
                              383.67   403.80   408.91   482.94   554.18
                              567.59   588.28   609.03   654.01   668.83
                              732.70   781.68   784.89   845.17   846.58
                              871.43   911.88   987.76  1006.59  1037.08
                             1063.81  1071.26  1080.96  1104.52  1125.79
                             1197.08  1207.55  1272.76  1283.67  1318.49
                             1351.03  1381.15  1383.63  1400.25  1402.70
                             1436.83  1446.71  1455.08  1485.43  1570.52
                             1636.93  1658.28  1681.55  1687.69  1694.71
                             1740.47  1786.49  1817.95  1823.70  1837.11
                             1885.48  1902.15  1925.21  1949.32  1988.96
                             2002.41  2018.72  2048.50  2092.19  2110.19
                             2150.00  2163.50  2193.25  2214.61  2250.83
                             2291.10  2352.36  2445.93  4280.61  4344.66
                             4493.42  4514.27  4517.37  4522.17  4546.34
                             4547.82  4548.33  4555.55  4568.51  4617.21

 Zero-point correction=                           0.239633 (Hartree/Particle)
 Thermal correction to Energy=                    0.255918
 Thermal correction to Enthalpy=                  0.256862
 Thermal correction to Gibbs Free Energy=         0.194979
 Sum of electronic and zero-point Energies=           -880.914815
 Sum of electronic and thermal Energies=              -880.898530
 Sum of electronic and thermal Enthalpies=            -880.897586
 Sum of electronic and thermal Free Energies=         -880.959469

                     E (Thermal)             CV                S
                      KCal/Mol        Cal/Mol-Kelvin    Cal/Mol-Kelvin
 Total                  160.591             64.305            130.243
 Electronic               0.000              0.000              0.000
 Translational            0.889              2.981             42.613
 Rotational               0.889              2.981             34.259
 Vibrational            158.813             58.343             53.371
 Vibration     1          0.594              1.984              5.823
 Vibration     2          0.596              1.976              4.642
 Vibration     3          0.599              1.966              4.022
 Vibration     4          0.600              1.961              3.832
 Vibration     5          0.602              1.955              3.629
 Vibration     6          0.608              1.937              3.176
 Vibration     7          0.613              1.919              2.880
 Vibration     8          0.632              1.859              2.270
 Vibration     9          0.645              1.819              2.004
 Vibration    10          0.660              1.771              1.765
 Vibration    11          0.672              1.734              1.618
 Vibration    12          0.680              1.709              1.530
 Vibration    13          0.683              1.703              1.508
 Vibration    14          0.717              1.604              1.233
 Vibration    15          0.754              1.502              1.019
 Vibration    16          0.761              1.482              0.983
 Vibration    17          0.773              1.451              0.931
 Vibration    18          0.785              1.420              0.881
 Vibration    19          0.813              1.351              0.782
 Vibration    20          0.822              1.328              0.752
 Vibration    21          0.864              1.229              0.635
 Vibration    22          0.898              1.154              0.558
 Vibration    23          0.901              1.149              0.554
 Vibration    24          0.945              1.059              0.472
 Vibration    25          0.946              1.057              0.470
 Vibration    26          0.964              1.020              0.440

 Optimization completed.
    -- Stationary point found.
 Normal termination of Gaussian 16 at Sun Feb 11 19:41:59 2024.
