 Gaussian 16, Revision A.03,
 Gaussian 16:  ES64L-G16RevA.03 25-Dec-2016

 --------------------------------------
 #P UB3LYP/6-311++G(d,p) nosym opt freq
 --------------------------------------

 -------
 Radical
 -------
 Symbolic Z-matrix:
 Charge = -1 Multiplicity = 2

 SCF Done:  E(UB3LYP) =  -650.836524161     A.U. after   21 cycles
 SCF Done:  E(UB3LYP) =  -650.860110560     A.U. after   18 cycles
 SCF Done:  E(UB3LYP) =  -650.861446680     A.U. after   16 cycles
 SCF Done:  E(UB3LYP) =  -650.861587557     A.U. after   15 cycles
 SCF Done:  E(UB3LYP) =  -650.861601107     A.U. after   14 cycles
 Optimization completed.
    -- Stationary point found.
 Normal termination of Gaussian 16 at Sat Jan  6 01:56:32 2024.

 ----------------------------------------------------------------------
 #P Geom=AllCheck Guess=TCheck SCRF=Check GenChk UB3LYP/6-311++G(d,p) F
 req
 ----------------------------------------------------------------------

 Structure from the checkpoint file:  "335-rad.chk"
 -------
 Radical
 -------
 Charge = -1 Multiplicity = 2

                          Input orientation:
 ---------------------------------------------------------------------
 Center     Atomic      Atomic             Coordinates (Angstroms)
 Number     Number       Type             X           Y           Z
 ---------------------------------------------------------------------
      1          8           0        0.125716    0.416044    2.682086
      2          6           0        0.067604    0.222454    1.433436
      3          6           0       -1.194173    0.112963    0.715475
      4          6           0       -2.443244    0.217174    1.375478
      5          6           0       -3.642633    0.110425    0.677281
      6          6           0       -3.644039   -0.103866   -0.702956
      7          6           0       -2.416803   -0.211277   -1.384100
      8          6           0       -1.226898   -0.103747   -0.681163
      9          8           0       -0.066814   -0.219651   -1.418067
     10          6           0        1.157830   -0.123996   -0.789663
     11          6           0        2.276131   -0.251108   -1.598657
     12          6           0        3.562319   -0.165365   -1.032348
     13          6           0        3.690388    0.047388    0.342171
     14          6           0        2.562071    0.173964    1.147226
     15          6           0        1.256033    0.091914    0.604113
     16          1           0       -2.419251    0.383271    2.445900
     17          1           0       -4.584772    0.194718    1.211972
     18          1           0       -4.576122   -0.187792   -1.251611
     19          1           0       -2.375692   -0.377594   -2.455128
     20          1           0        2.134556   -0.415603   -2.661283
     21          1           0        4.439172   -0.264522   -1.663329
     22          1           0        4.679025    0.114891    0.788024
     23          1           0        2.639598    0.339315    2.215146
 ---------------------------------------------------------------------

 SCF Done:  E(UB3LYP) =  -650.861601107     A.U. after    1 cycles

 Alpha  occ. eigenvalues --  -19.04438 -18.91645 -10.10826 -10.10824 -10.07106
 Alpha  occ. eigenvalues --  -10.04665 -10.04656 -10.04454 -10.04448 -10.04362
 Alpha  occ. eigenvalues --  -10.04359 -10.03962 -10.03960 -10.03462 -10.03458
 Alpha  occ. eigenvalues --   -0.96282  -0.83965  -0.73135  -0.71799  -0.64194
 Alpha  occ. eigenvalues --   -0.63932  -0.61481  -0.60077  -0.52491  -0.51068
 Alpha  occ. eigenvalues --   -0.46789  -0.45976  -0.42285  -0.41967  -0.36690
 Alpha  occ. eigenvalues --   -0.35768  -0.34166  -0.33055  -0.32550  -0.30392
 Alpha  occ. eigenvalues --   -0.30291  -0.28856  -0.26393  -0.25973  -0.25350
 Alpha  occ. eigenvalues --   -0.24324  -0.24168  -0.22797  -0.22274  -0.20447
 Alpha  occ. eigenvalues --   -0.19746  -0.13635  -0.12531  -0.12223  -0.09696
 Alpha  occ. eigenvalues --   -0.08842   0.02383
 Alpha virt. eigenvalues --    0.08422   0.08606   0.09975   0.10504   0.10540
 Alpha virt. eigenvalues --    0.11316   0.11323   0.12859   0.12903   0.13269
 Alpha virt. eigenvalues --    0.15016   0.15560   0.15577   0.16815   0.17404

  Beta  occ. eigenvalues --  -19.04369 -18.91110 -10.10767 -10.10764 -10.06806
  Beta  occ. eigenvalues --  -10.04551 -10.04546 -10.04432 -10.04422 -10.04329
  Beta  occ. eigenvalues --  -10.04326 -10.04003 -10.04000 -10.03231 -10.03226
  Beta  occ. eigenvalues --   -0.96153  -0.82989  -0.72923  -0.71536  -0.63756
  Beta  occ. eigenvalues --   -0.63713  -0.61185  -0.59863  -0.51839  -0.51036
  Beta  occ. eigenvalues --   -0.46496  -0.45693  -0.42105  -0.41657  -0.36513
  Beta  occ. eigenvalues --   -0.35662  -0.34027  -0.32917  -0.32104  -0.30266
  Beta  occ. eigenvalues --   -0.30158  -0.28705  -0.26283  -0.25655  -0.25055
  Beta  occ. eigenvalues --   -0.23714  -0.22717  -0.22692  -0.22134  -0.19579
  Beta  occ. eigenvalues --   -0.19060  -0.13046  -0.11594  -0.10627  -0.08721
  Beta  occ. eigenvalues --   -0.08358
  Beta virt. eigenvalues --    0.07890   0.08399   0.08585   0.09938   0.10502
  Beta virt. eigenvalues --    0.11207   0.11309   0.12336   0.12841   0.13252
  Beta virt. eigenvalues --    0.13482   0.14992   0.15576   0.15689   0.16871

 Mulliken charges and spin densities:
               1          2
     1  O   -0.428240   0.207958
     2  C   -0.584566   0.185391
     3  C    1.214817  -0.038474
     4  C    0.219520   0.207222
     5  C   -0.233109  -0.065747
     6  C   -0.346212   0.180504
     7  C   -0.391277   0.001050
     8  C   -0.934730   0.037367
     9  O   -0.093704   0.014207
    10  C   -0.935381   0.037796
    11  C   -0.390538   0.000802
    12  C   -0.346727   0.181696
    13  C   -0.232630  -0.066110
    14  C    0.217855   0.208031
    15  C    1.213426  -0.038313
    16  H    0.167850  -0.014748
    17  H    0.113060   0.004559
    18  H    0.113154  -0.013957
    19  H    0.131779  -0.002489
    20  H    0.131787  -0.002483
    21  H    0.113117  -0.014052
    22  H    0.113011   0.004585
    23  H    0.167737  -0.014796
 Sum of Mulliken charges =  -1.00000   1.00000

 Dipole moment (field-independent basis, Debye):
    X=             -0.2185    Y=             -0.7030    Z=             -4.5298  Tot=              4.5892
 Quadrupole moment (field-independent basis, Debye-Ang):
   XX=           -110.3908   YY=            -96.6424   ZZ=           -109.6227
   XY=              0.0241   XZ=              0.0214   YZ=             -2.0644

  Exact polarizability: 389.789  -1.871  97.803  -9.265  14.032 186.020
 Approx polarizability: 613.474  -2.638 150.685 -12.556  29.782 337.923

                      1                      2                      3
                      A                      A                      A
 Frequencies --     55.4523               113.7843               150.3735
 Red. masses --      6.4652                 3.9287                 6.3703
 Frc consts  --      0.0117                 0.0300                 0.0849
 IR Inten    --      1.6173                 0.0000                 1.5738

                      4                      5                      6
                      A                      A                      A
 Frequencies --    230.8123               250.6711               257.4007
 Red. masses --      4.8052                 4.9453                 6.7600
 Frc consts  --      0.1508                 0.1831                 0.2639
 IR Inten    --      2.8287                 0.0000                 0.2721

                      7                      8                      9
                      A                      A                      A
 Frequencies --    303.9280               369.6534               386.1470
 Red. masses --      8.1628                 3.9891                 6.9124
 Frc consts  --      0.4443                 0.3212                 0.6073
 IR Inten    --      0.0650                 0.0091                 2.0342

                     10                     11                     12
                      A                      A                      A
 Frequencies --    441.1909               445.5008               516.5401
 Red. masses --      3.4142                 6.6513                10.8726
 Frc consts  --      0.3916                 0.7778                 1.7092
 IR Inten    --      0.0001                 2.7203                 1.3939

                     13                     14                     15
                      A                      A                      A
 Frequencies --    522.3268               537.0879               599.3598
 Red. masses --      4.6737                 4.1238                 8.0029
 Frc consts  --      0.7513                 0.7009                 1.6938
 IR Inten    --      0.0000                 6.4855                 0.1242

                     16                     17                     18
                      A                      A                      A
 Frequencies --    623.9504               628.6530               660.5975
 Red. masses --      4.1441                 6.9605                 6.6452
 Frc consts  --      0.9506                 1.6207                 1.7086
 IR Inten    --     31.4406                 0.5496                 0.2155

                     19                     20                     21
                      A                      A                      A
 Frequencies --    688.9942               698.3164               710.0154
 Red. masses --      3.1906                 6.2019                 1.4095
 Frc consts  --      0.8924                 1.7819                 0.4186
 IR Inten    --      0.0023                 0.4121                 3.8264

                     22                     23                     24
                      A                      A                      A
 Frequencies --    711.2762               732.5254               815.3259
 Red. masses --      1.3335                 4.0511                 1.3641
 Frc consts  --      0.3975                 1.2808                 0.5343
 IR Inten    --    129.1574                 3.5968                 0.0066

                     25                     26                     27
                      A                      A                      A
 Frequencies --    819.9579               840.7215               851.2973
 Red. masses --      1.5085                 6.3385                 1.2942
 Frc consts  --      0.5976                 2.6396                 0.5526
 IR Inten    --      2.4114                11.9696                 2.0604

                     28                     29                     30
                      A                      A                      A
 Frequencies --    852.5858               861.0081               929.8256
 Red. masses --      1.3317                 6.3245                 6.3608
 Frc consts  --      0.5704                 2.7624                 3.2402
 IR Inten    --     24.4045               166.9717                 0.8529

                     31                     32                     33
                      A                      A                      A
 Frequencies --    931.9937               932.3169              1036.2248
 Red. masses --      1.2463                 1.2498                 2.1849
 Frc consts  --      0.6378                 0.6400                 1.3822
 IR Inten    --      0.2730                 2.4146                 7.5349

                     34                     35                     36
                      A                      A                      A
 Frequencies --   1037.7622              1087.6573              1107.4529
 Red. masses --      1.8434                 1.9606                 1.6984
 Frc consts  --      1.1697                 1.3665                 1.2273
 IR Inten    --    122.2486                23.3886                38.1313

                     37                     38                     39
                      A                      A                      A
 Frequencies --   1151.2039              1156.9985              1185.5618
 Red. masses --      1.1400                 1.1297                 4.2293
 Frc consts  --      0.8902                 0.8910                 3.5024
 IR Inten    --      8.5701                 0.0092                 0.1208

                     40                     41                     42
                      A                      A                      A
 Frequencies --   1190.7743              1218.1278              1259.3676
 Red. masses --      3.0488                 2.1208                 3.5856
 Frc consts  --      2.5470                 1.8541                 3.3506
 IR Inten    --      0.0222               303.3128                33.9354

                     43                     44                     45
                      A                      A                      A
 Frequencies --   1276.5403              1281.6541              1348.6143
 Red. masses --      4.1820                 1.6153                 5.6078
 Frc consts  --      4.0152                 1.5633                 6.0092
 IR Inten    --    623.3041                 4.6290                 0.5871

                     46                     47                     48
                      A                      A                      A
 Frequencies --   1367.1649              1438.6916              1467.3820
 Red. masses --      6.0816                 2.2341                 2.6000
 Frc consts  --      6.6975                 2.7245                 3.2984
 IR Inten    --      3.3316               132.8769                26.0683

                     49                     50                     51
                      A                      A                      A
 Frequencies --   1469.3235              1486.7663              1534.4769
 Red. masses --      2.9071                 2.7921                 4.0378
 Frc consts  --      3.6979                 3.6364                 5.6016
 IR Inten    --     88.4561                12.9718               363.0687

                     52                     53                     54
                      A                      A                      A
 Frequencies --   1549.7820              1554.9245              1585.3378
 Red. masses --      7.2965                 5.1239                 7.2545
 Frc consts  --     10.3254                 7.2991                10.7424
 IR Inten    --    256.9703                 7.6813               125.0431

                     55                     56                     57
                      A                      A                      A
 Frequencies --   1628.5441              3132.4832              3133.0947
 Red. masses --      6.8291                 1.0850                 1.0853
 Frc consts  --     10.6712                 6.2727                 6.2769
 IR Inten    --      0.4447                61.7959                19.6059

                     58                     59                     60
                      A                      A                      A
 Frequencies --   3155.6675              3156.1624              3173.4255
 Red. masses --      1.0883                 1.0885                 1.0938
 Frc consts  --      6.3855                 6.3883                 6.4901
 IR Inten    --     65.6802                 9.8965                25.3534

                     61                     62                     63
                      A                      A                      A
 Frequencies --   3174.1025              3186.8620              3187.7506
 Red. masses --      1.0937                 1.0909                 1.0911
 Frc consts  --      6.4924                 6.5275                 6.5323
 IR Inten    --     39.6602                 7.2197                 5.8153

 - Thermochemistry -
 -------------------
 Temperature   298.150 Kelvin.  Pressure   1.00000 Atm.
 Atom     1 has atomic number  8 and mass  15.99491

 Molecular mass:   196.05243 amu.
 Principal axes and moments of inertia in atomic units:
                           1         2         3
     Eigenvalues --  1244.396193915.825315160.22145
           X            0.99892   0.04639   0.00146
           Y           -0.00855   0.15306   0.98818
           Z           -0.04562   0.98713  -0.15329
 This molecule is an asymmetric top.
 Rotational symmetry number  1.
 Warning -- assumption of classical behavior for rotation
           may cause significant error
 Rotational temperatures (Kelvin)      0.06960     0.02212     0.01678
 Rotational constants (GHZ):           1.45029     0.46088     0.34974
 Zero-point vibrational energy     443751.6 (Joules/Mol)
                                  106.05917 (Kcal/Mol)
 Warning -- explicit consideration of  15 degrees of freedom as
           vibrations may cause significant error
 Vibrational temperatures:     79.78   163.71   216.35   332.09   360.66
          (Kelvin)            370.34   437.28   531.85   555.58   634.78
                              640.98   743.19   751.51   772.75   862.35
                              897.73   904.49   950.45   991.31  1004.72
                             1021.55  1023.37  1053.94  1173.07  1179.74
                             1209.61  1224.83  1226.68  1238.80  1337.81
                             1340.93  1341.40  1490.90  1493.11  1564.90
                             1593.38  1656.33  1664.66  1705.76  1713.26
                             1752.61  1811.95  1836.66  1844.01  1940.36
                             1967.05  2069.96  2111.24  2114.03  2139.13
                             2207.77  2229.79  2237.19  2280.95  2343.11
                             4506.94  4507.82  4540.30  4541.01  4565.85
                             4566.83  4585.18  4586.46

 Zero-point correction=                           0.169016 (Hartree/Particle)
 Thermal correction to Energy=                    0.179716
 Thermal correction to Enthalpy=                  0.180660
 Thermal correction to Gibbs Free Energy=         0.131881
 Sum of electronic and zero-point Energies=           -650.692585
 Sum of electronic and thermal Energies=              -650.681885
 Sum of electronic and thermal Enthalpies=            -650.680941
 Sum of electronic and thermal Free Energies=         -650.729720

                     E (Thermal)             CV                S
                      KCal/Mol        Cal/Mol-Kelvin    Cal/Mol-Kelvin
 Total                  112.774             44.675            102.664
 Electronic               0.000              0.000              1.377
 Translational            0.889              2.981             41.725
 Rotational               0.889              2.981             31.598
 Vibrational            110.996             38.714             27.964
 Vibration     1          0.596              1.975              4.613
 Vibration     2          0.607              1.938              3.203
 Vibration     3          0.618              1.902              2.667
 Vibration     4          0.653              1.794              1.873
 Vibration     5          0.663              1.762              1.726
 Vibration     6          0.667              1.750              1.679
 Vibration     7          0.695              1.666              1.395
 Vibration     8          0.742              1.535              1.081
 Vibration     9          0.755              1.500              1.015
 Vibration    10          0.801              1.380              0.823
 Vibration    11          0.805              1.371              0.809
 Vibration    12          0.872              1.213              0.618
 Vibration    13          0.877              1.201              0.605
 Vibration    14          0.892              1.168              0.572
 Vibration    15          0.957              1.033              0.451

                           ! Non-Optimized Parameters !
 Normal termination of Gaussian 16 at Sat Jan  6 02:32:27 2024.
