 Q-Chem 5.4, Q-Chem, Inc., Pleasanton, CA (2021)
 Q-Chem 5.4.0 for Intel X86 EM64T Linux

User input:
--------------------------------------------------------------
$molecule
-2 1
N                 -2.5823290000     -2.2747500000      0.6046910000
C                 -2.3465170000     -0.9339700000      0.2205480000
C                 -3.4190290000     -0.0934260000     -0.0011980000
C                 -3.2152830000      1.2725310000     -0.3104360000
C                 -1.9425690000      1.8027910000     -0.3636380000
O                 -1.8156540000      3.1638910000     -0.6220860000
C                 -0.7781180000      0.9886580000     -0.1796180000
C                  0.5604110000      1.5556710000     -0.2901910000
O                  0.8098900000      2.7752190000     -0.5525500000
C                  1.6538800000      0.6119000000     -0.0828640000
C                  2.9848020000      1.0853130000     -0.1503570000
C                  4.0738430000      0.2502780000      0.0122680000
C                  3.8594350000     -1.1354370000      0.2510120000
C                  2.5729680000     -1.6267250000      0.3197680000
C                  1.4365400000     -0.7868930000      0.1629050000
C                  0.1180830000     -1.3556240000      0.2522770000
O                 -0.0167750000     -2.6413930000      0.4432840000
C                 -0.9899830000     -0.4389670000      0.1112550000
H                 -3.3416470000     -2.6913370000      0.0818930000
H                 -1.6867270000     -2.7948470000      0.5437030000
H                 -4.4301810000     -0.4784150000      0.1136840000
H                 -4.0725780000      1.9171560000     -0.5080100000
H                 -2.7100320000      3.5177010000     -0.5515690000
H                  3.1067080000      2.1469320000     -0.3415830000
H                  5.0861680000      0.6470050000     -0.0427830000
H                  4.7088340000     -1.8049630000      0.3795000000
H                  2.3758610000     -2.6782990000      0.5000960000
$end
$rem
MAX_SCF_CYCLES=200
BASIS  =  6-311++G(d,p)
GUI  =  2
JOB_TYPE  =  SP
METHOD  =  B3LYP
SOLVENT_METHOD = PCM
$end
$pcm
theory = CPCM
$end
$solvent
dielectric 37.219
opticaldielectric 1.43
$end

--------------------------------------------------------------

             Standard Nuclear Orientation (Angstroms)
    I     Atom           X                Y                Z
 ----------------------------------------------------------------
    1      N      -2.5823290000    -2.2747500000     0.6046910000
    2      C      -2.3465170000    -0.9339700000     0.2205480000
    3      C      -3.4190290000    -0.0934260000    -0.0011980000
    4      C      -3.2152830000     1.2725310000    -0.3104360000
    5      C      -1.9425690000     1.8027910000    -0.3636380000
    6      O      -1.8156540000     3.1638910000    -0.6220860000
    7      C      -0.7781180000     0.9886580000    -0.1796180000
    8      C       0.5604110000     1.5556710000    -0.2901910000
    9      O       0.8098900000     2.7752190000    -0.5525500000
   10      C       1.6538800000     0.6119000000    -0.0828640000
   11      C       2.9848020000     1.0853130000    -0.1503570000
   12      C       4.0738430000     0.2502780000     0.0122680000
   13      C       3.8594350000    -1.1354370000     0.2510120000
   14      C       2.5729680000    -1.6267250000     0.3197680000
   15      C       1.4365400000    -0.7868930000     0.1629050000
   16      C       0.1180830000    -1.3556240000     0.2522770000
   17      O      -0.0167750000    -2.6413930000     0.4432840000
   18      C      -0.9899830000    -0.4389670000     0.1112550000
   19      H      -3.3416470000    -2.6913370000     0.0818930000
   20      H      -1.6867270000    -2.7948470000     0.5437030000
   21      H      -4.4301810000    -0.4784150000     0.1136840000
   22      H      -4.0725780000     1.9171560000    -0.5080100000
   23      H      -2.7100320000     3.5177010000    -0.5515690000
   24      H       3.1067080000     2.1469320000    -0.3415830000
   25      H       5.0861680000     0.6470050000    -0.0427830000
   26      H       4.7088340000    -1.8049630000     0.3795000000
   27      H       2.3758610000    -2.6782990000     0.5000960000
 ----------------------------------------------------------------

    9    -819.8134359092      3.07e-06  Convergence criterion met
 Total energy in the final basis set =     -819.8134359092

                    Orbital Energies (a.u.)
 --------------------------------------------------------------

 Alpha MOs
 -- Occupied --
-19.1252 -19.0257 -19.0205 -14.2717 -10.2030 -10.1820 -10.1800 -10.1773
-10.1505 -10.1491 -10.1465 -10.1463 -10.1460 -10.1446 -10.1405 -10.1373
-10.1359 -10.1355  -1.0331  -0.9472  -0.9436  -0.8752  -0.8267  -0.8018
 -0.7510  -0.7235  -0.7087  -0.6948  -0.6360  -0.6095  -0.5979  -0.5590
 -0.5357  -0.5187  -0.5086  -0.4774  -0.4623  -0.4417  -0.4368  -0.4263
 -0.4149  -0.4022  -0.3974  -0.3954  -0.3757  -0.3679  -0.3660  -0.3556
 -0.3524  -0.3408  -0.3387  -0.3213  -0.3178  -0.3086  -0.3045  -0.2646
 -0.2306  -0.2276  -0.2178  -0.2064  -0.1948  -0.1802  -0.1046

          Ground-State Mulliken Net Atomic Charges

     Atom                 Charge (a.u.)
  ----------------------------------------
      1 N                    -0.507256
      2 C                     0.007347
      3 C                    -0.351284
      4 C                    -0.346261
      5 C                    -0.278755
      6 O                    -0.300079
      7 C                     0.418879
      8 C                    -0.259238
      9 O                    -0.648962
     10 C                    -0.076056
     11 C                     0.057262
     12 C                    -0.545007
     13 C                    -0.566887
     14 C                     0.083413
     15 C                     0.093003
     16 C                    -0.329471
     17 O                    -0.656440
     18 C                     0.382034
     19 H                     0.252119
     20 H                     0.312016
     21 H                     0.167133
     22 H                     0.159998
     23 H                     0.295250
     24 H                     0.141567
     25 H                     0.172037
     26 H                     0.171956
     27 H                     0.151682
  ----------------------------------------
  Sum of atomic charges =    -2.000000

                    Cartesian Multipole Moments
 -----------------------------------------------------------------
    Charge (ESU x 10^10)
                -9.6064
    Dipole Moment (Debye)
         X      -3.8319      Y      -1.6427      Z      -0.6964
       Tot       4.2269
    Quadrupole Moments (Debye-Ang)
        XX    -124.1039     XY     -10.6037     YY    -161.9704
        XZ       5.9708     YZ      13.0839     ZZ    -121.7316

 Total job time:  182.81s(wall), 337.85s(cpu)
        *  Thank you very much for using Q-Chem.  Have a nice day.  *
