 Gaussian 16, Revision A.03,
 Gaussian 16:  ES64L-G16RevA.03 25-Dec-2016

 ----------------------------------------------------------------------
 #P UB3LYP/6-311++G(d,p) nosym opt freq SCRF=(PCM,Solvent=n,n-DiMethylF
 ormamide)
 ----------------------------------------------------------------------

 -------
 Radical
 -------
 Symbolic Z-matrix:
 Charge = -1 Multiplicity = 2

 SCF Done:  E(UB3LYP) =  -573.744519090     A.U. after   19 cycles
 SCF Done:  E(UB3LYP) =  -573.744924687     A.U. after   15 cycles
 SCF Done:  E(UB3LYP) =  -573.744474917     A.U. after   15 cycles
 SCF Done:  E(UB3LYP) =  -573.744976809     A.U. after   15 cycles
 SCF Done:  E(UB3LYP) =  -573.745004666     A.U. after   13 cycles
 SCF Done:  E(UB3LYP) =  -573.745008177     A.U. after   12 cycles
 SCF Done:  E(UB3LYP) =  -573.745008839     A.U. after   11 cycles
 Optimization completed.
    -- Stationary point found.
 Normal termination of Gaussian 16 at Sat Feb 10 10:18:52 2024.

 ----------------------------------------------------------------------
 #P Geom=AllCheck Guess=TCheck SCRF=Check GenChk UB3LYP/6-311++G(d,p) F
 req
 ----------------------------------------------------------------------

 Structure from the checkpoint file:  "058-rad.chk"
 -------
 Radical
 -------
 Charge = -1 Multiplicity = 2

                          Input orientation:
 ---------------------------------------------------------------------
 Center     Atomic      Atomic             Coordinates (Angstroms)
 Number     Number       Type             X           Y           Z
 ---------------------------------------------------------------------
      1          6           0       -0.515836    1.155479   -0.389505
      2          6           0       -1.413607    0.120744   -0.885924
      3          6           0       -1.251767   -1.216619   -0.676043
      4          6           0       -0.104532   -1.684698    0.100742
      5          6           0        0.790816   -0.679313    0.595614
      6          6           0        0.627476    0.686923    0.403068
      7          8           0       -0.738388    2.358129   -0.680717
      8          8           0        0.086902   -2.919251    0.328748
      9          6           0        1.600943    1.626436    1.008252
     10          6           0        2.949091    1.078321    1.462948
     11          8           0        1.367641    2.821799    1.173292
     12          1           0       -2.256215    0.482933   -1.468940
     13          1           0        3.419394    0.456025    0.698696
     14          1           0        2.831532    0.464113    2.361096
     15          1           0        3.599341    1.918408    1.704514
     16          6           0       -2.211240   -2.236192   -1.221885
     17          1           0        1.628048   -1.054015    1.172641
     18          1           0       -3.021079   -1.758046   -1.775846
     19          1           0       -2.644317   -2.836398   -0.415811
     20          1           0       -1.698903   -2.938058   -1.887381
 ---------------------------------------------------------------------

 SCF Done:  E(UB3LYP) =  -573.745008839     A.U. after    1 cycles

 Alpha  occ. eigenvalues --  -19.10291 -19.08339 -19.08120 -10.25670 -10.23200
 Alpha  occ. eigenvalues --  -10.22319 -10.18123 -10.17533 -10.17373 -10.16454
 Alpha  occ. eigenvalues --  -10.16428 -10.16155  -1.03431  -1.00394  -1.00108
 Alpha  occ. eigenvalues --   -0.83433  -0.78502  -0.73240  -0.70042  -0.68059
 Alpha  occ. eigenvalues --   -0.60410  -0.58403  -0.52062  -0.48972  -0.47367
 Alpha  occ. eigenvalues --   -0.44736  -0.44217  -0.43346  -0.42566  -0.42235
 Alpha  occ. eigenvalues --   -0.40737  -0.39331  -0.39251  -0.38370  -0.37473
 Alpha  occ. eigenvalues --   -0.37145  -0.36147  -0.35283  -0.28608  -0.26767
 Alpha  occ. eigenvalues --   -0.25894  -0.24746  -0.22663  -0.17019
 Alpha virt. eigenvalues --   -0.05160  -0.00248   0.00645   0.00870   0.01800
 Alpha virt. eigenvalues --    0.02886   0.03343   0.03635   0.03811   0.05087
 Alpha virt. eigenvalues --    0.05531   0.05738   0.06067   0.07202   0.07899

  Beta  occ. eigenvalues --  -19.10193 -19.07578 -19.07543 -10.25662 -10.23129
  Beta  occ. eigenvalues --  -10.22193 -10.18100 -10.17412 -10.17125 -10.16430
  Beta  occ. eigenvalues --  -10.16360 -10.16158  -1.03238  -0.99388  -0.98794
  Beta  occ. eigenvalues --   -0.82864  -0.78279  -0.73122  -0.69597  -0.67296
  Beta  occ. eigenvalues --   -0.60040  -0.58105  -0.51738  -0.48765  -0.47133
  Beta  occ. eigenvalues --   -0.44430  -0.43833  -0.43133  -0.42119  -0.42023
  Beta  occ. eigenvalues --   -0.40115  -0.39157  -0.38461  -0.37979  -0.36925
  Beta  occ. eigenvalues --   -0.35850  -0.35083  -0.34478  -0.26469  -0.25481
  Beta  occ. eigenvalues --   -0.24969  -0.24056  -0.22253
  Beta virt. eigenvalues --   -0.09996  -0.03901  -0.00224   0.00654   0.01832
  Beta virt. eigenvalues --    0.02103   0.02922   0.03585   0.03666   0.04424
  Beta virt. eigenvalues --    0.05162   0.05739   0.06081   0.06475   0.07294

 Mulliken charges and spin densities:
               1          2
     1  C   -0.616955   0.039110
     2  C   -0.615639   0.050207
     3  C    1.175190   0.015828
     4  C   -0.805010   0.103557
     5  C   -0.864280   0.170905
     6  C    1.539081   0.092336
     7  O   -0.448995   0.208463
     8  O   -0.470808   0.273684
     9  C    0.036834   0.016189
    10  C   -0.578037   0.001587
    11  O   -0.364583   0.035818
    12  H    0.160695  -0.006631
    13  H    0.162739  -0.000129
    14  H    0.178074   0.000669
    15  H    0.185831  -0.000325
    16  C   -0.345039   0.009894
    17  H    0.172942  -0.012929
    18  H    0.154386  -0.000356
    19  H    0.171271   0.001192
    20  H    0.172303   0.000931
 Sum of Mulliken charges =  -1.00000   1.00000

 Dipole moment (field-independent basis, Debye):
    X=              0.5593    Y=             -3.9410    Z=             -0.6439  Tot=              4.0322
 Quadrupole moment (field-independent basis, Debye-Ang):
   XX=            -69.1954   YY=           -125.7462   ZZ=            -74.3686
   XY=              1.5787   XZ=              0.3347   YZ=              1.7016

  Exact polarizability: 175.462  15.983 285.788  48.229   0.902 129.517
 Approx polarizability: 175.952   1.209 327.565  41.782  -8.508 140.406

                      1                      2                      3
                      A                      A                      A
 Frequencies --     54.0906                75.3816               142.0280
 Red. masses --      4.0046                 6.6164                 4.2101
 Frc consts  --      0.0069                 0.0222                 0.0500
 IR Inten    --     16.7725                 3.7119                 9.2796

                      4                      5                      6
                      A                      A                      A
 Frequencies --    151.8120               165.3681               190.5153
 Red. masses --      1.0382                 1.2363                 4.8768
 Frc consts  --      0.0141                 0.0199                 0.1043
 IR Inten    --      0.2327                 4.0695                 7.1667

                      7                      8                      9
                      A                      A                      A
 Frequencies --    202.8837               290.5815               319.4897
 Red. masses --      3.2856                 3.3290                 5.8853
 Frc consts  --      0.0797                 0.1656                 0.3539
 IR Inten    --      0.4386                 2.4938                 4.2927

                     10                     11                     12
                      A                      A                      A
 Frequencies --    343.8071               391.2520               407.6891
 Red. masses --      6.2225                 7.6187                 3.9377
 Frc consts  --      0.4334                 0.6871                 0.3856
 IR Inten    --      7.2723                19.6415                 3.9816

                     13                     14                     15
                      A                      A                      A
 Frequencies --    428.7015               484.6778               539.9668
 Red. masses --      3.8024                 9.7425                 4.6040
 Frc consts  --      0.4117                 1.3484                 0.7909
 IR Inten    --      0.8169                 1.0500                24.2184

                     16                     17                     18
                      A                      A                      A
 Frequencies --    579.4882               645.5228               670.8928
 Red. masses --      2.8665                 4.0807                 4.7378
 Frc consts  --      0.5671                 1.0019                 1.2564
 IR Inten    --      6.6304                12.3775                20.2911

                     19                     20                     21
                      A                      A                      A
 Frequencies --    687.6440               713.7917               751.3932
 Red. masses --      3.5720                 6.0425                 3.3646
 Frc consts  --      0.9952                 1.8139                 1.1192
 IR Inten    --      4.3333                25.7492                 3.5470

                     22                     23                     24
                      A                      A                      A
 Frequencies --    847.4841               863.2628               900.1207
 Red. masses --      3.1048                 1.5507                 1.5548
 Frc consts  --      1.3139                 0.6809                 0.7422
 IR Inten    --     22.7236                 2.5280                67.6818

                     25                     26                     27
                      A                      A                      A
 Frequencies --    933.6923              1017.4717              1026.5337
 Red. masses --      3.5682                 1.5696                 2.1343
 Frc consts  --      1.8328                 0.9574                 1.3251
 IR Inten    --    114.4087                46.0509                78.0093

                     28                     29                     30
                      A                      A                      A
 Frequencies --   1033.5985              1050.2227              1157.4448
 Red. masses --      1.8941                 1.5330                 3.0700
 Frc consts  --      1.1922                 0.9962                 2.4232
 IR Inten    --     10.5424                 3.5665                61.7632

                     31                     32                     33
                      A                      A                      A
 Frequencies --   1185.5337              1245.5742              1261.8179
 Red. masses --      5.0498                 2.6465                 1.4616
 Frc consts  --      4.1817                 2.4191                 1.3711
 IR Inten    --    179.5967               264.4310                16.0150

                     34                     35                     36
                      A                      A                      A
 Frequencies --   1340.7109              1378.2493              1396.8488
 Red. masses --      2.5568                 1.3722                 1.3968
 Frc consts  --      2.7078                 1.5357                 1.6058
 IR Inten    --      7.5788                25.4253                32.3145

                     37                     38                     39
                      A                      A                      A
 Frequencies --   1421.3497              1449.6433              1460.9379
 Red. masses --      3.9591                 6.9700                 1.0455
 Frc consts  --      4.7125                 8.6298                 1.3148
 IR Inten    --    244.4932               449.8647                 9.9782

                     40                     41                     42
                      A                      A                      A
 Frequencies --   1463.9596              1470.9563              1474.1676
 Red. masses --      1.0673                 1.0604                 1.1611
 Frc consts  --      1.3477                 1.3518                 1.4867
 IR Inten    --     29.7935                11.0227                 7.8448

                     43                     44                     45
                      A                      A                      A
 Frequencies --   1510.8866              1544.9366              1639.7548
 Red. masses --      5.6197                 5.8867                 6.7618
 Frc consts  --      7.5583                 8.2784                10.7120
 IR Inten    --    880.9169                16.5716                82.7254

                     46                     47                     48
                      A                      A                      A
 Frequencies --   1673.2618              3022.6656              3034.5332
 Red. masses --      9.6941                 1.0364                 1.0381
 Frc consts  --     15.9913                 5.5790                 5.6323
 IR Inten    --    945.3454                51.0605                 6.1230

                     49                     50                     51
                      A                      A                      A
 Frequencies --   3068.3011              3095.9678              3104.8538
 Red. masses --      1.0991                 1.0975                 1.1020
 Frc consts  --      6.0966                 6.1981                 6.2590
 IR Inten    --     27.5414                14.9861                30.3908

                     52                     53                     54
                      A                      A                      A
 Frequencies --   3132.7444              3146.7982              3182.4287
 Red. masses --      1.1031                 1.0898                 1.0884
 Frc consts  --      6.3783                 6.3581                 6.4947
 IR Inten    --     28.4396                40.6672                13.7854

 - Thermochemistry -
 -------------------
 Temperature   298.150 Kelvin.  Pressure   1.00000 Atm.
 Atom     1 has atomic number  6 and mass  12.00000

 Molecular mass:   164.04734 amu.
 Principal axes and moments of inertia in atomic units:
                           1         2         3
     Eigenvalues --  1088.187692641.085463678.92263
           X            0.54844   0.65138  -0.52433
           Y            0.77902  -0.62589   0.03729
           Z            0.30388   0.42892   0.85070
 This molecule is an asymmetric top.
 Rotational symmetry number  1.
 Warning -- assumption of classical behavior for rotation
           may cause significant error
 Rotational temperatures (Kelvin)      0.07959     0.03279     0.02354
 Rotational constants (GHZ):           1.65848     0.68333     0.49056
 Zero-point vibrational energy     387432.7 (Joules/Mol)
                                   92.59864 (Kcal/Mol)
 Warning -- explicit consideration of  16 degrees of freedom as
           vibrations may cause significant error
 Vibrational temperatures:     77.82   108.46   204.35   218.42   237.93
          (Kelvin)            274.11   291.90   418.08   459.67   494.66
                              562.92   586.57   616.81   697.34   776.89
                              833.75   928.76   965.27   989.37  1026.99
                             1081.09  1219.34  1242.04  1295.07  1343.37
                             1463.91  1476.95  1487.12  1511.04  1665.30
                             1705.72  1792.10  1815.47  1928.98  1982.99
                             2009.75  2045.01  2085.71  2101.96  2106.31
                             2116.38  2121.00  2173.83  2222.82  2359.24
                             2407.45  4348.94  4366.02  4414.60  4454.41
                             4467.19  4507.32  4527.54  4578.81

 Zero-point correction=                           0.147565 (Hartree/Particle)
 Thermal correction to Energy=                    0.158835
 Thermal correction to Enthalpy=                  0.159779
 Thermal correction to Gibbs Free Energy=         0.109612
 Sum of electronic and zero-point Energies=           -573.597444
 Sum of electronic and thermal Energies=              -573.586174
 Sum of electronic and thermal Enthalpies=            -573.585230
 Sum of electronic and thermal Free Energies=         -573.635397

                     E (Thermal)             CV                S
                      KCal/Mol        Cal/Mol-Kelvin    Cal/Mol-Kelvin
 Total                   99.670             41.637            105.585
 Electronic               0.000              0.000              1.377
 Translational            0.889              2.981             41.193
 Rotational               0.889              2.981             30.737
 Vibrational             97.893             35.675             32.277
 Vibration     1          0.596              1.976              4.662
 Vibration     2          0.599              1.965              4.008
 Vibration     3          0.615              1.911              2.776
 Vibration     4          0.619              1.901              2.649
 Vibration     5          0.624              1.885              2.487
 Vibration     6          0.634              1.853              2.223
 Vibration     7          0.639              1.836              2.107
 Vibration     8          0.687              1.691              1.471
 Vibration     9          0.705              1.636              1.313
 Vibration    10          0.723              1.588              1.194
 Vibration    11          0.759              1.489              0.995
 Vibration    12          0.772              1.454              0.935
 Vibration    13          0.790              1.408              0.863
 Vibration    14          0.841              1.284              0.698
 Vibration    15          0.895              1.162              0.565
 Vibration    16          0.936              1.076              0.486

                           ! Non-Optimized Parameters !
 Normal termination of Gaussian 16 at Sat Feb 10 10:32:18 2024.
