 Gaussian 16, Revision A.03,
 Gaussian 16:  ES64L-G16RevA.03 25-Dec-2016

 ----------------------------------------------------------------------
 #P UB3LYP/6-311++G(d,p) nosym opt freq SCRF=(PCM,Solvent=n,n-DiMethylF
 ormamide)
 ----------------------------------------------------------------------

 --------
 Oxidized
 --------
 Symbolic Z-matrix:
 Charge =  0 Multiplicity = 1

 SCF Done:  E(UB3LYP) =  -2015.37006553     A.U. after   16 cycles
 SCF Done:  E(UB3LYP) =  -2015.37055584     A.U. after   13 cycles
 SCF Done:  E(UB3LYP) =  -2015.37062726     A.U. after   11 cycles
 SCF Done:  E(UB3LYP) =  -2015.37051174     A.U. after   13 cycles
 SCF Done:  E(UB3LYP) =  -2015.37068880     A.U. after   11 cycles
 SCF Done:  E(UB3LYP) =  -2015.37069827     A.U. after   11 cycles
 SCF Done:  E(UB3LYP) =  -2015.37070295     A.U. after   11 cycles
 SCF Done:  E(UB3LYP) =  -2015.37070569     A.U. after   11 cycles
 SCF Done:  E(UB3LYP) =  -2015.37070839     A.U. after   11 cycles
 SCF Done:  E(UB3LYP) =  -2015.37071067     A.U. after   11 cycles
 SCF Done:  E(UB3LYP) =  -2015.37071827     A.U. after   12 cycles
 SCF Done:  E(UB3LYP) =  -2015.37072379     A.U. after   11 cycles
 SCF Done:  E(UB3LYP) =  -2015.37072728     A.U. after   12 cycles
 SCF Done:  E(UB3LYP) =  -2015.37072875     A.U. after   11 cycles
 SCF Done:  E(UB3LYP) =  -2015.37072985     A.U. after   11 cycles
 SCF Done:  E(UB3LYP) =  -2015.37072996     A.U. after    9 cycles
 SCF Done:  E(UB3LYP) =  -2015.37073001     A.U. after    9 cycles
 SCF Done:  E(UB3LYP) =  -2015.37073002     A.U. after   10 cycles
 SCF Done:  E(UB3LYP) =  -2015.37073003     A.U. after    8 cycles
 Optimization completed.
    -- Stationary point found.
 Normal termination of Gaussian 16 at Sun Feb 11 00:37:11 2024.

 ----------------------------------------------------------------------
 #P Geom=AllCheck Guess=TCheck SCRF=Check GenChk UB3LYP/6-311++G(d,p) F
 req
 ----------------------------------------------------------------------

 Structure from the checkpoint file:  "217.chk"
 --------
 Oxidized
 --------
 Charge =  0 Multiplicity = 1

                          Input orientation:
 ---------------------------------------------------------------------
 Center     Atomic      Atomic             Coordinates (Angstroms)
 Number     Number       Type             X           Y           Z
 ---------------------------------------------------------------------
      1          6           0        5.005599   -2.067556    0.498102
      2          6           0        5.749657   -1.366674   -0.438498
      3          6           0        5.153230   -0.651735   -1.478326
      4          6           0        3.612802   -2.059692    0.394366
      5          6           0        2.993073   -1.348699   -0.647365
      6          6           0        3.768455   -0.648598   -1.576290
      7          6           0        2.815991   -2.811434    1.406062
      8          6           0        1.331765   -2.787316    1.265493
      9          6           0        0.704124   -2.078598    0.226792
     10          6           0        1.505329   -1.322055   -0.782311
     11          6           0        0.559387   -3.487393    2.194831
     12          6           0       -0.689980   -2.071617    0.125647
     13          6           0       -1.463547   -2.765735    1.046195
     14          8           0        3.357178   -3.422538    2.312623
     15          8           0        0.964343   -0.705624   -1.684206
     16          1           0        5.479777   -2.610937    1.304397
     17         16           0        7.537291   -1.378159   -0.304921
     18          1           0       -2.543535   -2.758581    0.978590
     19          1           0        3.275757   -0.102838   -2.370001
     20          1           0        1.045236   -4.026813    2.996840
     21          1           0       -1.157724   -1.517527   -0.677345
     22          6           0       -0.821141   -3.466587    2.067819
     23         16           0       -1.811330   -4.369298    3.258638
     24          8           0       -1.052548   -4.563861    4.491105
     25          8           0       -3.145280   -3.780013    3.341239
     26          8           0       -1.894608   -5.776684    2.448217
     27          6           0       -2.658833   -6.856156    3.067853
     28          1           0       -2.215968   -7.125980    4.026256
     29          1           0       -2.577066   -7.682329    2.367115
     30          1           0       -3.700459   -6.558035    3.184034
     31          1           0        5.758870   -0.104833   -2.189062
     32          8           0        7.931174   -1.729207    1.056658
     33          8           0        8.087356   -0.164687   -0.903838
     34          8           0        7.819244   -2.639018   -1.292458
     35          6           0        9.214740   -2.992982   -1.538343
     36          1           0        9.699383   -3.276870   -0.604490
     37          1           0        9.732803   -2.161420   -2.015183
     38          1           0        9.163243   -3.843929   -2.211763
 ---------------------------------------------------------------------

 SCF Done:  E(UB3LYP) =  -2015.37073003     A.U. after    2 cycles

 Alpha  occ. eigenvalues --  -89.10539 -89.10535 -19.19412 -19.19408 -19.15061
 Alpha  occ. eigenvalues --  -19.15055 -19.15049 -19.15048 -19.15043 -19.14840
 Alpha  occ. eigenvalues --  -10.30237 -10.30149 -10.25211 -10.25208 -10.24210
 Alpha  occ. eigenvalues --  -10.24210 -10.23358 -10.23355 -10.23227 -10.23225
 Alpha  occ. eigenvalues --  -10.22899 -10.22896 -10.22852 -10.22844 -10.21942
 Alpha  occ. eigenvalues --  -10.21941  -8.16616  -8.16612  -6.12984  -6.12980
 Alpha  occ. eigenvalues --   -6.12807  -6.12803  -6.12691  -6.12688  -1.17337
 Alpha  occ. eigenvalues --   -1.17335  -1.08472  -1.08218  -1.06444  -1.06439
 Alpha  occ. eigenvalues --   -1.04282  -1.04279  -0.92289  -0.91439  -0.85019
 Alpha  occ. eigenvalues --   -0.82018  -0.80858  -0.80270  -0.76698  -0.75601
 Alpha  occ. eigenvalues --   -0.71607  -0.70355  -0.68690  -0.65383  -0.64496
 Alpha  occ. eigenvalues --   -0.62869  -0.61065  -0.58961  -0.58796  -0.55543
 Alpha  occ. eigenvalues --   -0.55152  -0.53825  -0.53458  -0.53133  -0.51620
 Alpha  occ. eigenvalues --   -0.50532  -0.50441  -0.48808  -0.48254  -0.47711
 Alpha  occ. eigenvalues --   -0.47509  -0.47395  -0.47370  -0.47048  -0.46959
 Alpha  occ. eigenvalues --   -0.46485  -0.46360  -0.44245  -0.43614  -0.42963
 Alpha  occ. eigenvalues --   -0.42008  -0.41894  -0.41753  -0.40450  -0.39783
 Alpha  occ. eigenvalues --   -0.39445  -0.37137  -0.37131  -0.36719  -0.36672
 Alpha  occ. eigenvalues --   -0.35259  -0.35244  -0.35193  -0.35173  -0.31857
 Alpha  occ. eigenvalues --   -0.31845  -0.31335  -0.30666  -0.30552  -0.30156
 Alpha  occ. eigenvalues --   -0.30006  -0.29394
 Alpha virt. eigenvalues --   -0.13992  -0.09995  -0.07632  -0.05054  -0.01771
 Alpha virt. eigenvalues --   -0.01369  -0.01000   0.00380   0.00824   0.01055
 Alpha virt. eigenvalues --    0.01382   0.01721   0.01800   0.02527   0.02636

  Beta  occ. eigenvalues --  -89.10539 -89.10535 -19.19412 -19.19408 -19.15061
  Beta  occ. eigenvalues --  -19.15055 -19.15049 -19.15048 -19.15043 -19.14840
  Beta  occ. eigenvalues --  -10.30237 -10.30149 -10.25211 -10.25208 -10.24210
  Beta  occ. eigenvalues --  -10.24210 -10.23358 -10.23355 -10.23227 -10.23225
  Beta  occ. eigenvalues --  -10.22899 -10.22896 -10.22852 -10.22844 -10.21942
  Beta  occ. eigenvalues --  -10.21941  -8.16616  -8.16612  -6.12984  -6.12980
  Beta  occ. eigenvalues --   -6.12807  -6.12803  -6.12691  -6.12688  -1.17337
  Beta  occ. eigenvalues --   -1.17335  -1.08472  -1.08218  -1.06444  -1.06439
  Beta  occ. eigenvalues --   -1.04282  -1.04279  -0.92289  -0.91439  -0.85019
  Beta  occ. eigenvalues --   -0.82018  -0.80858  -0.80270  -0.76698  -0.75601
  Beta  occ. eigenvalues --   -0.71607  -0.70355  -0.68690  -0.65383  -0.64496
  Beta  occ. eigenvalues --   -0.62869  -0.61065  -0.58961  -0.58796  -0.55543
  Beta  occ. eigenvalues --   -0.55152  -0.53825  -0.53458  -0.53133  -0.51620
  Beta  occ. eigenvalues --   -0.50532  -0.50441  -0.48808  -0.48254  -0.47711
  Beta  occ. eigenvalues --   -0.47509  -0.47395  -0.47370  -0.47048  -0.46959
  Beta  occ. eigenvalues --   -0.46485  -0.46360  -0.44245  -0.43614  -0.42963
  Beta  occ. eigenvalues --   -0.42008  -0.41894  -0.41753  -0.40450  -0.39783
  Beta  occ. eigenvalues --   -0.39445  -0.37137  -0.37131  -0.36719  -0.36672
  Beta  occ. eigenvalues --   -0.35259  -0.35244  -0.35193  -0.35173  -0.31857
  Beta  occ. eigenvalues --   -0.31845  -0.31335  -0.30666  -0.30552  -0.30156
  Beta  occ. eigenvalues --   -0.30006  -0.29394
  Beta virt. eigenvalues --   -0.13992  -0.09995  -0.07632  -0.05054  -0.01771
  Beta virt. eigenvalues --   -0.01369  -0.01000   0.00380   0.00824   0.01055
  Beta virt. eigenvalues --    0.01382   0.01721   0.01800   0.02527   0.02636

 Mulliken charges and spin densities:
               1          2
     1  C    0.131001   0.000000
     2  C   -0.796634   0.000000
     3  C   -0.323085  -0.000000
     4  C    0.453832  -0.000000
     5  C    0.478601   0.000000
     6  C   -0.022985   0.000000
     7  C   -0.917112   0.000000
     8  C    0.424833  -0.000000
     9  C    0.466180   0.000000
    10  C   -0.450612  -0.000000
    11  C    0.110616  -0.000000
    12  C   -0.013185  -0.000000
    13  C   -0.321368  -0.000000
    14  O   -0.220543  -0.000000
    15  O   -0.227867   0.000000
    16  H    0.238877   0.000000
    17  S    0.309117   0.000000
    18  H    0.258330  -0.000000
    19  H    0.202144   0.000000
    20  H    0.237562   0.000000
    21  H    0.202094   0.000000
    22  C   -0.768707  -0.000000
    23  S    0.304963   0.000000
    24  O   -0.197810  -0.000000
    25  O   -0.199208  -0.000000
    26  O   -0.036269   0.000000
    27  C   -0.132941  -0.000000
    28  H    0.181824   0.000000
    29  H    0.195214   0.000000
    30  H    0.180298  -0.000000
    31  H    0.258637  -0.000000
    32  O   -0.188694  -0.000000
    33  O   -0.206138  -0.000000
    34  O   -0.034986  -0.000000
    35  C   -0.133579  -0.000000
    36  H    0.182237   0.000000
    37  H    0.180165   0.000000
    38  H    0.195195  -0.000000
 Sum of Mulliken charges =  -0.00000  -0.00000

 Dipole moment (field-independent basis, Debye):
    X=             -1.3182    Y=             -3.5067    Z=             -6.6590  Tot=              7.6405
 Quadrupole moment (field-independent basis, Debye-Ang):
   XX=           -171.8895   YY=           -135.1828   ZZ=           -189.0168
   XY=             -6.9975   XZ=            -25.5384   YZ=             17.0131

  Exact polarizability: 462.497  31.309 275.076 -30.654 -93.515 326.126
 Approx polarizability: 486.303   8.220 322.498   5.230-116.689 403.022

                      1                      2                      3
                      A                      A                      A
 Frequencies --     13.7156                15.4246                22.4673
 Red. masses --      5.0728                 5.4988                 6.7424
 Frc consts  --      0.0006                 0.0008                 0.0020
 IR Inten    --      3.9628                 2.4877                 3.3011

                      4                      5                      6
                      A                      A                      A
 Frequencies --     37.6553                38.4848                48.8585
 Red. masses --      3.2681                 3.4714                 5.1124
 Frc consts  --      0.0027                 0.0030                 0.0072
 IR Inten    --      2.8024                 3.1070                 0.8442

                      7                      8                      9
                      A                      A                      A
 Frequencies --     62.6169                75.6103               110.8581
 Red. masses --      7.2227                11.2314                 4.3786
 Frc consts  --      0.0167                 0.0378                 0.0317
 IR Inten    --      5.4736                 7.9452                 0.1952

                     10                     11                     12
                      A                      A                      A
 Frequencies --    115.7329               128.0604               138.9025
 Red. masses --      5.4732                 5.6120                 1.1507
 Frc consts  --      0.0432                 0.0542                 0.0131
 IR Inten    --      4.8995                 1.5427                 1.5263

                     13                     14                     15
                      A                      A                      A
 Frequencies --    140.3729               146.4684               181.6774
 Red. masses --      1.2326                 7.2762                 5.5395
 Frc consts  --      0.0143                 0.0920                 0.1077
 IR Inten    --      1.2003                11.4965                 2.8832

                     16                     17                     18
                      A                      A                      A
 Frequencies --    183.9947               217.8679               232.8909
 Red. masses --     11.6917                10.4625                 4.8786
 Frc consts  --      0.2332                 0.2926                 0.1559
 IR Inten    --      1.6519                 3.5261                28.7713

                     19                     20                     21
                      A                      A                      A
 Frequencies --    249.6663               256.9620               264.3491
 Red. masses --      9.6608                 5.3160                13.2409
 Frc consts  --      0.3548                 0.2068                 0.5452
 IR Inten    --      1.5748                22.3028                 0.4121

                     22                     23                     24
                      A                      A                      A
 Frequencies --    318.1316               347.4042               361.9034
 Red. masses --      5.7232                 5.7034                 7.2897
 Frc consts  --      0.3413                 0.4056                 0.5625
 IR Inten    --      6.8755                 5.0170                20.9479

                     25                     26                     27
                      A                      A                      A
 Frequencies --    368.6913               401.0360               411.4975
 Red. masses --      7.4323                10.6098                 3.4159
 Frc consts  --      0.5953                 1.0054                 0.3408
 IR Inten    --      0.1418                70.6073                 0.2240

                     28                     29                     30
                      A                      A                      A
 Frequencies --    424.1793               445.9587               452.1664
 Red. masses --      8.5237                 3.4046                 9.2868
 Frc consts  --      0.9036                 0.3989                 1.1187
 IR Inten    --      2.7692                 2.9334                65.6210

                     31                     32                     33
                      A                      A                      A
 Frequencies --    462.8280               472.7097               477.1813
 Red. masses --     10.6985                10.5030                10.6604
 Frc consts  --      1.3503                 1.3828                 1.4302
 IR Inten    --     19.5976                24.2949                 1.6989

                     34                     35                     36
                      A                      A                      A
 Frequencies --    488.3329               492.6953               517.8142
 Red. masses --      8.5583                 9.6082                 7.6995
 Frc consts  --      1.2025                 1.3742                 1.2163
 IR Inten    --      7.2994                 3.7579                41.8774

                     37                     38                     39
                      A                      A                      A
 Frequencies --    567.1152               606.7705               609.6948
 Red. masses --      5.6810                 9.3251                10.2018
 Frc consts  --      1.0765                 2.0228                 2.2344
 IR Inten    --      9.2512                94.5504               226.1899

                     40                     41                     42
                      A                      A                      A
 Frequencies --    655.8435               663.2191               679.8282
 Red. masses --      7.6568                 4.6999                 5.8158
 Frc consts  --      1.9404                 1.2180                 1.5836
 IR Inten    --     61.1019                19.8152               228.8619

                     43                     44                     45
                      A                      A                      A
 Frequencies --    689.1112               700.4970               708.7474
 Red. masses --      9.4425                 7.2041                 7.5987
 Frc consts  --      2.6419                 2.0828                 2.2489
 IR Inten    --    142.6639               175.3964               243.3218

                     46                     47                     48
                      A                      A                      A
 Frequencies --    727.3907               745.9747               756.3386
 Red. masses --      4.2939                 8.5179                 5.6093
 Frc consts  --      1.3385                 2.7927                 1.8906
 IR Inten    --      2.1701               141.3284                 6.5718

                     49                     50                     51
                      A                      A                      A
 Frequencies --    814.8259               857.0390               860.4667
 Red. masses --      3.6776                 7.4769                 1.3503
 Frc consts  --      1.4386                 3.2358                 0.5890
 IR Inten    --      0.2951                28.7077                 1.3629

                     52                     53                     54
                      A                      A                      A
 Frequencies --    882.0618               937.6989               945.0614
 Red. masses --      1.7530                 5.9754                 1.5750
 Frc consts  --      0.8036                 3.0956                 0.8288
 IR Inten    --     17.0984               362.2510                 0.9536

                     55                     56                     57
                      A                      A                      A
 Frequencies --    952.3332               957.9599               960.0576
 Red. masses --      2.6733                 7.1130                 2.6688
 Frc consts  --      1.4285                 3.8459                 1.4493
 IR Inten    --    155.7357               379.0504               268.5117

                     58                     59                     60
                      A                      A                      A
 Frequencies --    989.8316              1010.1932              1012.4485
 Red. masses --      5.8270                 1.3612                 1.3777
 Frc consts  --      3.3637                 0.8184                 0.8320
 IR Inten    --     94.5559                 0.0730                 1.2330

                     61                     62                     63
                      A                      A                      A
 Frequencies --   1080.8073              1081.4543              1102.6140
 Red. masses --      2.8946                 2.6639                 5.1350
 Frc consts  --      1.9922                 1.8356                 3.6782
 IR Inten    --     97.4298                11.0400               202.3234

                     64                     65                     66
                      A                      A                      A
 Frequencies --   1114.9033              1137.7147              1139.1100
 Red. masses --      4.0462                 1.9410                 2.5648
 Frc consts  --      2.9633                 1.4803                 1.9608
 IR Inten    --    602.0724               118.7374                70.0408

                     67                     68                     69
                      A                      A                      A
 Frequencies --   1161.0007              1161.0440              1181.3478
 Red. masses --      1.2554                 1.2554                 1.3728
 Frc consts  --      0.9970                 0.9971                 1.1288
 IR Inten    --      3.7652                 3.6511                 8.6401

                     70                     71                     72
                      A                      A                      A
 Frequencies --   1182.0474              1183.9697              1187.9656
 Red. masses --      1.3407                 1.7445                 3.8926
 Frc consts  --      1.1037                 1.4408                 3.2367
 IR Inten    --     20.9696                50.4228                27.2244

                     73                     74                     75
                      A                      A                      A
 Frequencies --   1228.0492              1264.0448              1266.0119
 Red. masses --      1.7928                 6.1857                19.2068
 Frc consts  --      1.5930                 5.8232                18.1377
 IR Inten    --      4.1401               635.5788               241.3824

                     76                     77                     78
                      A                      A                      A
 Frequencies --   1276.1114              1286.0682              1301.7663
 Red. masses --      1.6830                 2.3387                 3.6122
 Frc consts  --      1.6147                 2.2791                 3.6066
 IR Inten    --     33.3870               353.6760               630.2839

                     79                     80                     81
                      A                      A                      A
 Frequencies --   1348.8595              1359.3011              1423.3462
 Red. masses --      7.8698                 9.5369                 3.7982
 Frc consts  --      8.4362                10.3822                 4.5337
 IR Inten    --     41.6400                 3.5877                 0.1620

                     82                     83                     84
                      A                      A                      A
 Frequencies --   1442.6807              1458.1378              1458.7918
 Red. masses --      4.8015                 1.1318                 1.1318
 Frc consts  --      5.8880                 1.4178                 1.4191
 IR Inten    --      7.2466                 2.2345                 2.1821

                     85                     86                     87
                      A                      A                      A
 Frequencies --   1475.7508              1475.9226              1487.9056
 Red. masses --      1.0446                 1.0447                 1.0473
 Frc consts  --      1.3403                 1.3408                 1.3660
 IR Inten    --     13.5281                13.6778                21.0980

                     88                     89                     90
                      A                      A                      A
 Frequencies --   1488.2660              1495.0708              1502.2344
 Red. masses --      1.0477                 2.5845                 2.5546
 Frc consts  --      1.3672                 3.4037                 3.3967
 IR Inten    --     21.4665                24.1179                 4.0814

                     91                     92                     93
                      A                      A                      A
 Frequencies --   1598.9216              1612.3810              1619.7690
 Red. masses --      7.7372                 8.5985                 6.5053
 Frc consts  --     11.6543                13.1707                10.0559
 IR Inten    --      0.4277                 9.3747               259.5563

                     94                     95                     96
                      A                      A                      A
 Frequencies --   1628.3510              1713.1968              1720.1083
 Red. masses --      6.3629                12.6634                12.3122
 Frc consts  --      9.9404                21.8984                21.4634
 IR Inten    --      7.5895                78.9971               699.4093

                     97                     98                     99
                      A                      A                      A
 Frequencies --   3058.4756              3058.5327              3145.4412
 Red. masses --      1.0285                 1.0285                 1.1099
 Frc consts  --      5.6686                 5.6689                 6.4697
 IR Inten    --     44.1752                39.0944                14.6151

                    100                    101                    102
                      A                      A                      A
 Frequencies --   3145.4624              3174.0469              3174.2608
 Red. masses --      1.1099                 1.1065                 1.1065
 Frc consts  --      6.4697                 6.5679                 6.5688
 IR Inten    --     15.6530                 4.8841                 4.9496

                    103                    104                    105
                      A                      A                      A
 Frequencies --   3206.4619              3207.0936              3216.7950
 Red. masses --      1.0892                 1.0892                 1.0930
 Frc consts  --      6.5981                 6.6007                 6.6635
 IR Inten    --      4.8026                 3.1749                 1.9042

                    106                    107                    108
                      A                      A                      A
 Frequencies --   3217.0993              3217.6223              3218.0337
 Red. masses --      1.0925                 1.0939                 1.0946
 Frc consts  --      6.6619                 6.6725                 6.6788
 IR Inten    --     11.8610                 3.7612                 4.1951

 - Thermochemistry -
 -------------------
 Temperature   298.150 Kelvin.  Pressure   1.00000 Atm.
 Atom     1 has atomic number  6 and mass  12.00000

 Molecular mass:   395.99736 amu.
 Principal axes and moments of inertia in atomic units:
                           1         2         3
     Eigenvalues --  3906.53652********************
           X            0.89462   0.44589   0.02907
           Y            0.28703  -0.62330   0.72740
           Z           -0.34246   0.64240   0.68560
 This molecule is an asymmetric top.
 Rotational symmetry number  1.
 Warning -- assumption of classical behavior for rotation
           may cause significant error
 Rotational temperatures (Kelvin)      0.02217     0.00327     0.00300
 Rotational constants (GHZ):           0.46198     0.06822     0.06253
 Zero-point vibrational energy     688451.0 (Joules/Mol)
                                  164.54375 (Kcal/Mol)
 Warning -- explicit consideration of  39 degrees of freedom as
           vibrations may cause significant error
 Vibrational temperatures:     19.73    22.19    32.33    54.18    55.37
          (Kelvin)             70.30    90.09   108.79   159.50   166.51
                              184.25   199.85   201.97   210.74   261.39
                              264.73   313.46   335.08   359.21   369.71
                              380.34   457.72   499.84   520.70   530.46
                              577.00   592.05   610.30   641.64   650.57
                              665.91   680.12   686.56   702.60   708.88
                              745.02   815.95   873.01   877.21   943.61
                              954.22   978.12   991.48  1007.86  1019.73
                             1046.55  1073.29  1088.20  1172.35  1233.09
                             1238.02  1269.09  1349.14  1359.73  1370.20
                             1378.29  1381.31  1424.15  1453.44  1456.69
                             1555.04  1555.97  1586.42  1604.10  1636.92
                             1638.93  1670.42  1670.48  1699.70  1700.70
                             1703.47  1709.22  1766.89  1818.68  1821.51
                             1836.04  1850.37  1872.95  1940.71  1955.73
                             2047.88  2075.70  2097.94  2098.88  2123.28
                             2123.52  2140.76  2141.28  2151.07  2161.38
                             2300.49  2319.86  2330.49  2342.83  2464.91
                             2474.85  4400.46  4400.55  4525.59  4525.62
                             4566.75  4567.05  4613.38  4614.29  4628.25
                             4628.69  4629.44  4630.03

 Zero-point correction=                           0.262217 (Hartree/Particle)
 Thermal correction to Energy=                    0.286438
 Thermal correction to Enthalpy=                  0.287382
 Thermal correction to Gibbs Free Energy=         0.203669
 Sum of electronic and zero-point Energies=          -2015.108513
 Sum of electronic and thermal Energies=             -2015.084292
 Sum of electronic and thermal Enthalpies=           -2015.083348
 Sum of electronic and thermal Free Energies=        -2015.167061

                     E (Thermal)             CV                S
                      KCal/Mol        Cal/Mol-Kelvin    Cal/Mol-Kelvin
 Total                  179.742             88.385            176.189
 Electronic               0.000              0.000              0.000
 Translational            0.889              2.981             43.820
 Rotational               0.889              2.981             36.343
 Vibrational            177.965             82.424             96.025
 Vibration     1          0.593              1.986              7.383
 Vibration     2          0.593              1.986              7.150
 Vibration     3          0.593              1.985              6.403
 Vibration     4          0.594              1.982              5.379
 Vibration     5          0.594              1.982              5.336
 Vibration     6          0.595              1.978              4.863
 Vibration     7          0.597              1.972              4.373
 Vibration     8          0.599              1.965              4.002
 Vibration     9          0.607              1.940              3.254
 Vibration    10          0.608              1.936              3.170
 Vibration    11          0.611              1.925              2.975
 Vibration    12          0.615              1.914              2.819
 Vibration    13          0.615              1.913              2.799
 Vibration    14          0.617              1.906              2.718
 Vibration    15          0.630              1.865              2.311
 Vibration    16          0.631              1.862              2.287
 Vibration    17          0.646              1.814              1.977
 Vibration    18          0.654              1.791              1.857
 Vibration    19          0.662              1.763              1.733
 Vibration    20          0.667              1.751              1.682
 Vibration    21          0.671              1.738              1.633
 Vibration    22          0.705              1.639              1.320
 Vibration    23          0.725              1.581              1.178
 Vibration    24          0.736              1.551              1.114
 Vibration    25          0.741              1.537              1.085
 Vibration    26          0.767              1.468              0.959
 Vibration    27          0.775              1.445              0.921
 Vibration    28          0.786              1.418              0.878
 Vibration    29          0.805              1.370              0.808
 Vibration    30          0.811              1.356              0.789
 Vibration    31          0.820              1.333              0.758
 Vibration    32          0.830              1.311              0.730
 Vibration    33          0.834              1.301              0.718
 Vibration    34          0.844              1.276              0.688
 Vibration    35          0.848              1.266              0.677
 Vibration    36          0.873              1.211              0.615
 Vibration    37          0.923              1.102              0.510
 Vibration    38          0.965              1.017              0.438
 Vibration    39          0.969              1.011              0.433

                           ! Non-Optimized Parameters !
 Normal termination of Gaussian 16 at Sun Feb 11 02:42:35 2024.
