 Q-Chem 5.4, Q-Chem, Inc., Pleasanton, CA (2021)
 Q-Chem 5.4.0 for Intel X86 EM64T Linux

User input:
--------------------------------------------------------------
$molecule
-2 1
C                  5.6179160000     -5.4006740000      1.2607230000
C                  6.5895830000     -5.2927990000      0.2830410000
C                  6.5585140000     -4.2202710000     -0.6501490000
C                  4.5570640000     -4.4745520000      1.3745400000
C                  4.5233520000     -3.3719490000      0.4459790000
C                  5.5397750000     -3.2894240000     -0.5370940000
C                  3.5470230000     -4.6496440000      2.4201760000
C                  2.5474880000     -3.6361670000      2.4243120000
C                  2.5135540000     -2.5642130000      1.5215610000
C                  3.4708810000     -2.3553260000      0.4877640000
O                  3.5766570000     -5.6302630000      3.2555200000
O                  3.4236750000     -1.3696690000     -0.3402050000
H                  5.6290410000     -6.2166930000      1.9775380000
H                  7.3850610000     -6.0347040000      0.2183520000
H                  1.7716980000     -3.7231190000      3.1856200000
H                  1.7074520000     -1.8327710000      1.5870010000
C                  7.6265910000     -4.1147960000     -1.7152250000
H                  5.4833380000     -2.4434300000     -1.2166900000
H                  8.6435970000     -4.0711250000     -1.2869940000
H                  7.4959340000     -3.2186120000     -2.3300930000
H                  7.6221250000     -4.9776960000     -2.3912250000
$end
$rem
MAX_SCF_CYCLES=200
BASIS  =  6-311++G(d,p)
GUI  =  2
JOB_TYPE  =  SP
METHOD  =  B3LYP
SOLVENT_METHOD = PCM
$end
$pcm
theory = CPCM
$end
$solvent
dielectric 37.219
opticaldielectric 1.43
$end

--------------------------------------------------------------

             Standard Nuclear Orientation (Angstroms)
    I     Atom           X                Y                Z
 ----------------------------------------------------------------
    1      C       5.6179160000    -5.4006740000     1.2607230000
    2      C       6.5895830000    -5.2927990000     0.2830410000
    3      C       6.5585140000    -4.2202710000    -0.6501490000
    4      C       4.5570640000    -4.4745520000     1.3745400000
    5      C       4.5233520000    -3.3719490000     0.4459790000
    6      C       5.5397750000    -3.2894240000    -0.5370940000
    7      C       3.5470230000    -4.6496440000     2.4201760000
    8      C       2.5474880000    -3.6361670000     2.4243120000
    9      C       2.5135540000    -2.5642130000     1.5215610000
   10      C       3.4708810000    -2.3553260000     0.4877640000
   11      O       3.5766570000    -5.6302630000     3.2555200000
   12      O       3.4236750000    -1.3696690000    -0.3402050000
   13      H       5.6290410000    -6.2166930000     1.9775380000
   14      H       7.3850610000    -6.0347040000     0.2183520000
   15      H       1.7716980000    -3.7231190000     3.1856200000
   16      H       1.7074520000    -1.8327710000     1.5870010000
   17      C       7.6265910000    -4.1147960000    -1.7152250000
   18      H       5.4833380000    -2.4434300000    -1.2166900000
   19      H       8.6435970000    -4.0711250000    -1.2869940000
   20      H       7.4959340000    -3.2186120000    -2.3300930000
   21      H       7.6221250000    -4.9776960000    -2.3912250000
 ----------------------------------------------------------------

    9    -574.8444775603      5.64e-06  Convergence criterion met
 Total energy in the final basis set =     -574.8444775603

                    Orbital Energies (a.u.)
 --------------------------------------------------------------

 Alpha MOs
 -- Occupied --
-19.0182 -19.0174 -10.1698 -10.1690 -10.1574 -10.1521 -10.1465 -10.1456
-10.1414 -10.1370 -10.1360 -10.1185 -10.1177  -0.9353  -0.9322  -0.8285
 -0.7679  -0.7339  -0.7121  -0.6664  -0.6315  -0.5837  -0.5634  -0.5241
 -0.4706  -0.4563  -0.4372  -0.4093  -0.4030  -0.4006  -0.3878  -0.3721
 -0.3667  -0.3585  -0.3541  -0.3426  -0.3192  -0.3116  -0.3083  -0.3028
 -0.2280  -0.2245  -0.2112  -0.2001  -0.1957  -0.1114

          Ground-State Mulliken Net Atomic Charges

     Atom                 Charge (a.u.)
  ----------------------------------------
      1 C                     0.029544
      2 C                    -0.493175
      3 C                     0.445814
      4 C                     0.147004
      5 C                    -0.020582
      6 C                    -0.339992
      7 C                    -0.587657
      8 C                     0.032602
      9 C                    -0.075783
     10 C                    -0.367364
     11 O                    -0.739821
     12 O                    -0.739781
     13 H                     0.141147
     14 H                     0.173436
     15 H                     0.131584
     16 H                     0.134496
     17 C                    -0.462886
     18 H                     0.113699
     19 H                     0.155439
     20 H                     0.162074
     21 H                     0.160203
  ----------------------------------------
  Sum of atomic charges =    -2.000000

                    Cartesian Multipole Moments
 -----------------------------------------------------------------
    Charge (ESU x 10^10)
                -9.6064
    Dipole Moment (Debye)
         X     -34.7618      Y      34.1156      Z     -13.4689
       Tot      50.5338
    Quadrupole Moments (Debye-Ang)
        XX    -214.2580     XY     125.3121     YY    -242.5284
        XZ     -49.4299     YZ      76.0143     ZZ    -130.2226

 Total job time:  35.40s(wall), 178.33s(cpu)
        *  Thank you very much for using Q-Chem.  Have a nice day.  *
