 Gaussian 16, Revision A.03,
 Gaussian 16:  ES64L-G16RevA.03 25-Dec-2016

 --------------------------------------
 #P UB3LYP/6-311++G(d,p) nosym opt freq
 --------------------------------------

 --------
 Oxidized
 --------
 Symbolic Z-matrix:
 Charge =  0 Multiplicity = 1

 SCF Done:  E(UB3LYP) =  -3184.03503907     A.U. after   16 cycles
 SCF Done:  E(UB3LYP) =  -3184.03736168     A.U. after   14 cycles
 SCF Done:  E(UB3LYP) =  -3184.03756140     A.U. after   13 cycles
 SCF Done:  E(UB3LYP) =  -3184.03757586     A.U. after   11 cycles
 SCF Done:  E(UB3LYP) =  -3184.03757673     A.U. after   11 cycles
 SCF Done:  E(UB3LYP) =  -3184.03757691     A.U. after   10 cycles
 SCF Done:  E(UB3LYP) =  -3184.03757794     A.U. after   10 cycles
 Optimization completed.
    -- Stationary point found.
 Normal termination of Gaussian 16 at Thu Dec 28 20:09:05 2023.

 ----------------------------------------------------------------------
 #P Geom=AllCheck Guess=TCheck SCRF=Check GenChk UB3LYP/6-311++G(d,p) F
 req
 ----------------------------------------------------------------------

 Structure from the checkpoint file:  "306.chk"
 --------
 Oxidized
 --------
 Charge =  0 Multiplicity = 1

                          Input orientation:
 ---------------------------------------------------------------------
 Center     Atomic      Atomic             Coordinates (Angstroms)
 Number     Number       Type             X           Y           Z
 ---------------------------------------------------------------------
      1          6           0       -4.127441    3.641023    1.516837
      2          6           0       -4.613398    3.862935    0.231349
      3          6           0       -4.029261    3.224749   -0.851745
      4          6           0       -2.947014    2.350532   -0.677606
      5          6           0       -2.439032    2.111965    0.619814
      6          6           0       -3.054371    2.776505    1.705472
      7          6           0       -2.566070    2.568542    3.103781
      8          6           0       -1.429126    1.652362    3.307545
      9          6           0       -0.846832    1.023174    2.279020
     10          6           0       -1.289926    1.189268    0.845382
     11          8           0       -3.080091    3.130460    4.057337
     12          8           0       -0.720429    0.591343   -0.041353
     13          1           0       -4.563316    4.125049    2.380827
     14          1           0       -4.407509    3.397005   -1.855342
     15          8           0       -2.387088    1.734950   -1.742536
     16         35           0        0.616038   -0.153418    2.558317
     17          1           0       -5.449073    4.534295    0.071436
     18          1           0       -1.100560    1.523812    4.331371
     19          1           0       -2.847372    2.003511   -2.546104
 ---------------------------------------------------------------------

 SCF Done:  E(UB3LYP) =  -3184.03757794     A.U. after    1 cycles

 Alpha  occ. eigenvalues -- -482.84619 -62.49889 -56.31935 -56.31550 -56.31504
 Alpha  occ. eigenvalues --  -19.18632 -19.13706 -19.13614 -10.29449 -10.28879
 Alpha  occ. eigenvalues --  -10.28212 -10.26745 -10.22266 -10.22135 -10.21874
 Alpha  occ. eigenvalues --  -10.21615 -10.21417 -10.20344  -8.70856  -6.54029
 Alpha  occ. eigenvalues --   -6.52741  -6.52603  -2.65121  -2.64774  -2.64669
 Alpha  occ. eigenvalues --   -2.63643  -2.63641  -1.10473  -1.07276  -1.06958
 Alpha  occ. eigenvalues --   -0.90162  -0.87050  -0.81401  -0.78532  -0.77316
 Alpha  occ. eigenvalues --   -0.70380  -0.67542  -0.64702  -0.61835  -0.56981
 Alpha  occ. eigenvalues --   -0.55603  -0.52120  -0.51622  -0.49523  -0.47845
 Alpha  occ. eigenvalues --   -0.47015  -0.46136  -0.44529  -0.43624  -0.43226
 Alpha  occ. eigenvalues --   -0.42184  -0.41321  -0.39904  -0.39291  -0.37162
 Alpha  occ. eigenvalues --   -0.35090  -0.30538  -0.29963  -0.28906  -0.28122
 Alpha  occ. eigenvalues --   -0.27740  -0.26419
 Alpha virt. eigenvalues --   -0.13158  -0.05771  -0.04994  -0.02675  -0.02516
 Alpha virt. eigenvalues --   -0.00533   0.00274   0.01877   0.02108   0.02855
 Alpha virt. eigenvalues --    0.03271   0.03582   0.04888   0.04918   0.05710

  Beta  occ. eigenvalues -- -482.84619 -62.49889 -56.31935 -56.31550 -56.31504
  Beta  occ. eigenvalues --  -19.18632 -19.13706 -19.13614 -10.29449 -10.28879
  Beta  occ. eigenvalues --  -10.28212 -10.26745 -10.22266 -10.22135 -10.21874
  Beta  occ. eigenvalues --  -10.21615 -10.21417 -10.20344  -8.70856  -6.54029
  Beta  occ. eigenvalues --   -6.52741  -6.52603  -2.65121  -2.64774  -2.64669
  Beta  occ. eigenvalues --   -2.63643  -2.63641  -1.10473  -1.07276  -1.06958
  Beta  occ. eigenvalues --   -0.90162  -0.87050  -0.81401  -0.78532  -0.77316
  Beta  occ. eigenvalues --   -0.70380  -0.67542  -0.64702  -0.61835  -0.56981
  Beta  occ. eigenvalues --   -0.55603  -0.52120  -0.51622  -0.49523  -0.47845
  Beta  occ. eigenvalues --   -0.47015  -0.46136  -0.44529  -0.43624  -0.43226
  Beta  occ. eigenvalues --   -0.42184  -0.41321  -0.39904  -0.39291  -0.37162
  Beta  occ. eigenvalues --   -0.35090  -0.30538  -0.29963  -0.28906  -0.28122
  Beta  occ. eigenvalues --   -0.27740  -0.26419
  Beta virt. eigenvalues --   -0.13158  -0.05771  -0.04994  -0.02675  -0.02516
  Beta virt. eigenvalues --   -0.00533   0.00274   0.01877   0.02108   0.02855
  Beta virt. eigenvalues --    0.03271   0.03582   0.04888   0.04918   0.05710

 Mulliken charges and spin densities:
               1          2
     1  C    0.270131  -0.000000
     2  C   -0.328072   0.000000
     3  C   -0.111250   0.000000
     4  C    0.176357  -0.000000
     5  C    0.062217   0.000000
     6  C    0.317362   0.000000
     7  C   -0.741780  -0.000000
     8  C    0.195943  -0.000000
     9  C    0.522300  -0.000000
    10  C   -0.823474  -0.000000
    11  O   -0.220309  -0.000000
    12  O   -0.142028  -0.000000
    13  H    0.179004   0.000000
    14  H    0.130790  -0.000000
    15  O   -0.147943  -0.000000
    16  Br  -0.057775  -0.000000
    17  H    0.193643  -0.000000
    18  H    0.253712   0.000000
    19  H    0.271172  -0.000000
 Sum of Mulliken charges =  -0.00000  -0.00000

 Dipole moment (field-independent basis, Debye):
    X=             -2.7921    Y=              1.9271    Z=             -2.7625  Tot=              4.3751
 Quadrupole moment (field-independent basis, Debye-Ang):
   XX=            -77.2322   YY=            -85.8696   ZZ=            -94.4536
   XY=            -10.9528   XZ=             15.6703   YZ=            -13.2050

  Exact polarizability: 153.690 -65.451 127.791  11.928   3.738 169.487
 Approx polarizability: 246.414-111.139 213.816 -18.061  40.878 298.816

                      1                      2                      3
                      A                      A                      A
 Frequencies --     31.6636                68.3124               127.4702
 Red. masses --     11.4480                 7.3199                 8.1241
 Frc consts  --      0.0068                 0.0201                 0.0778
 IR Inten    --      6.4694                 0.0006                 3.0553

                      4                      5                      6
                      A                      A                      A
 Frequencies --    150.8478               184.2023               238.3996
 Red. masses --     12.1872                 4.6117                 4.5151
 Frc consts  --      0.1634                 0.0922                 0.1512
 IR Inten    --      1.2722                 1.7937                 2.9097

                      7                      8                      9
                      A                      A                      A
 Frequencies --    246.0901               278.5834               342.9158
 Red. masses --     16.0303                 9.2160                 3.3102
 Frc consts  --      0.5720                 0.4214                 0.2293
 IR Inten    --      0.2921                 1.8811                15.9622

                     10                     11                     12
                      A                      A                      A
 Frequencies --    369.0175               389.8144               396.0005
 Red. masses --      9.3018                 1.3553                10.9353
 Frc consts  --      0.7463                 0.1213                 1.0104
 IR Inten    --      4.2667                75.5827                12.9303

                     13                     14                     15
                      A                      A                      A
 Frequencies --    459.5208               471.8819               501.2927
 Red. masses --      9.8483                 4.3619                 5.8403
 Frc consts  --      1.2252                 0.5723                 0.8647
 IR Inten    --      8.5423                 0.9744                 9.0499

                     16                     17                     18
                      A                      A                      A
 Frequencies --    540.6938               543.8693               664.5711
 Red. masses --      7.3876                 4.7176                 5.5126
 Frc consts  --      1.2725                 0.8222                 1.4345
 IR Inten    --     11.3768                 2.0794                20.7881

                     19                     20                     21
                      A                      A                      A
 Frequencies --    672.9055               689.7279               722.2824
 Red. masses --      8.0704                 3.6490                 3.9815
 Frc consts  --      2.1530                 1.0228                 1.2238
 IR Inten    --     16.2432                11.2409                10.6395

                     22                     23                     24
                      A                      A                      A
 Frequencies --    777.9648               784.8987               809.1609
 Red. masses --      6.6577                 2.7883                 2.5331
 Frc consts  --      2.3741                 1.0121                 0.9772
 IR Inten    --     39.0401                15.6568                34.5385

                     25                     26                     27
                      A                      A                      A
 Frequencies --    813.5936               905.6577               918.2129
 Red. masses --      6.4890                 1.3496                 1.4973
 Frc consts  --      2.5307                 0.6522                 0.7438
 IR Inten    --     55.5982                14.3503                 6.8078

                     28                     29                     30
                      A                      A                      A
 Frequencies --    958.2295               994.9059              1044.6225
 Red. masses --      7.5395                 1.3145                 5.0378
 Frc consts  --      4.0788                 0.7666                 3.2390
 IR Inten    --     38.3046                 0.2080                11.9935

                     31                     32                     33
                      A                      A                      A
 Frequencies --   1102.7775              1144.6045              1190.8836
 Red. masses --      1.9863                 2.4949                 1.2183
 Frc consts  --      1.4232                 1.9258                 1.0180
 IR Inten    --     10.7133               122.8254                12.7582

                     34                     35                     36
                      A                      A                      A
 Frequencies --   1207.1496              1251.2590              1300.4362
 Red. masses --      1.7851                 2.3178                 1.9710
 Frc consts  --      1.5326                 2.1381                 1.9638
 IR Inten    --      8.4564               228.2555               107.8981

                     37                     38                     39
                      A                      A                      A
 Frequencies --   1313.6572              1324.3291              1372.3506
 Red. masses --      2.3800                 5.4147                 5.1575
 Frc consts  --      2.4199                 5.5952                 5.7230
 IR Inten    --    200.2329                77.5348                 5.2301

                     40                     41                     42
                      A                      A                      A
 Frequencies --   1486.7396              1497.7181              1615.2110
 Red. masses --      2.8113                 2.7852                 6.0419
 Frc consts  --      3.6612                 3.6811                 9.2872
 IR Inten    --     42.9989                11.6770                 5.7007

                     43                     44                     45
                      A                      A                      A
 Frequencies --   1626.2650              1646.0295              1715.8992
 Red. masses --      6.2676                 8.8576                11.5811
 Frc consts  --      9.7664                14.1397                20.0901
 IR Inten    --    164.3337               112.2564               148.8518

                     46                     47                     48
                      A                      A                      A
 Frequencies --   1738.2712              3151.5098              3184.3762
 Red. masses --     12.8321                 1.0893                 1.0920
 Frc consts  --     22.8445                 6.3743                 6.5239
 IR Inten    --    256.7589                 9.9392                 7.6620

                     49                     50                     51
                      A                      A                      A
 Frequencies --   3200.3860              3209.9880              3811.1567
 Red. masses --      1.0933                 1.0934                 1.0661
 Frc consts  --      6.5977                 6.6380                 9.1232
 IR Inten    --      0.1530                 2.9484                80.6770

 - Thermochemistry -
 -------------------
 Temperature   298.150 Kelvin.  Pressure   1.00000 Atm.
 Atom     1 has atomic number  6 and mass  12.00000

 Molecular mass:   251.94221 amu.
 Principal axes and moments of inertia in atomic units:
                           1         2         3
     Eigenvalues --  1895.811905185.762687081.57436
           X            0.73171  -0.24680   0.63536
           Y           -0.55142   0.33360   0.76462
           Z            0.40067   0.90984  -0.10800
 This molecule is an asymmetric top.
 Rotational symmetry number  1.
 Warning -- assumption of classical behavior for rotation
           may cause significant error
 Rotational temperatures (Kelvin)      0.04569     0.01670     0.01223
 Rotational constants (GHZ):           0.95196     0.34802     0.25485
 Zero-point vibrational energy     330099.4 (Joules/Mol)
                                   78.89565 (Kcal/Mol)
 Warning -- explicit consideration of  17 degrees of freedom as
           vibrations may cause significant error
 Vibrational temperatures:     45.56    98.29   183.40   217.04   265.03
          (Kelvin)            343.00   354.07   400.82   493.38   530.93
                              560.86   569.76   661.15   678.93   721.25
                              777.94   782.51   956.17   968.16   992.36
                             1039.20  1119.32  1129.29  1164.20  1170.58
                             1303.04  1321.10  1378.68  1431.45  1502.98
                             1586.65  1646.83  1713.42  1736.82  1800.28
                             1871.04  1890.06  1905.41  1974.51  2139.09
                             2154.88  2323.93  2339.83  2368.27  2468.80
                             2500.98  4534.32  4581.61  4604.64  4618.46
                             5483.40

 Zero-point correction=                           0.125728 (Hartree/Particle)
 Thermal correction to Energy=                    0.137204
 Thermal correction to Enthalpy=                  0.138148
 Thermal correction to Gibbs Free Energy=         0.086523
 Sum of electronic and zero-point Energies=          -3183.911850
 Sum of electronic and thermal Energies=             -3183.900374
 Sum of electronic and thermal Enthalpies=           -3183.899430
 Sum of electronic and thermal Free Energies=        -3183.951055

                     E (Thermal)             CV                S
                      KCal/Mol        Cal/Mol-Kelvin    Cal/Mol-Kelvin
 Total                   86.097             43.339            108.653
 Electronic               0.000              0.000              0.000
 Translational            0.889              2.981             42.472
 Rotational               0.889              2.981             32.609
 Vibrational             84.319             37.378             33.571
 Vibration     1          0.594              1.983              5.722
 Vibration     2          0.598              1.969              4.201
 Vibration     3          0.611              1.926              2.984
 Vibration     4          0.618              1.902              2.662
 Vibration     5          0.631              1.861              2.285
 Vibration     6          0.656              1.782              1.815
 Vibration     7          0.661              1.769              1.758
 Vibration     8          0.679              1.713              1.542
 Vibration     9          0.722              1.590              1.199
 Vibration    10          0.741              1.536              1.084
 Vibration    11          0.758              1.492              1.001
 Vibration    12          0.763              1.479              0.977
 Vibration    13          0.817              1.340              0.768
 Vibration    14          0.829              1.312              0.732
 Vibration    15          0.857              1.247              0.655
 Vibration    16          0.896              1.160              0.564
 Vibration    17          0.899              1.153              0.557

 Optimization completed.
    -- Stationary point found.
 Normal termination of Gaussian 16 at Thu Dec 28 20:34:44 2023.
