 Gaussian 16, Revision A.03,
 Gaussian 16:  ES64L-G16RevA.03 25-Dec-2016

 ----------------------------------------------------------------------
 #P UB3LYP/6-311++G(d,p) nosym opt freq SCRF=(PCM,Solvent=n,n-DiMethylF
 ormamide)
 ----------------------------------------------------------------------

 -------
 Radical
 -------
 Symbolic Z-matrix:
 Charge = -1 Multiplicity = 2

 SCF Done:  E(UB3LYP) =  -837.615971226     A.U. after   19 cycles
 SCF Done:  E(UB3LYP) =  -837.616806571     A.U. after   16 cycles
 SCF Done:  E(UB3LYP) =  -837.616450395     A.U. after   15 cycles
 SCF Done:  E(UB3LYP) =  -837.617056066     A.U. after   15 cycles
 SCF Done:  E(UB3LYP) =  -837.617095721     A.U. after   14 cycles
 SCF Done:  E(UB3LYP) =  -837.617109245     A.U. after   14 cycles
 SCF Done:  E(UB3LYP) =  -837.617110580     A.U. after   13 cycles
 SCF Done:  E(UB3LYP) =  -837.617118173     A.U. after   12 cycles
 SCF Done:  E(UB3LYP) =  -837.617120158     A.U. after   14 cycles
 SCF Done:  E(UB3LYP) =  -837.617122185     A.U. after   12 cycles
 SCF Done:  E(UB3LYP) =  -837.617122752     A.U. after   13 cycles
 SCF Done:  E(UB3LYP) =  -837.617122967     A.U. after   12 cycles
 SCF Done:  E(UB3LYP) =  -837.617123190     A.U. after   13 cycles
 SCF Done:  E(UB3LYP) =  -837.617123301     A.U. after   12 cycles
 SCF Done:  E(UB3LYP) =  -837.617123340     A.U. after   11 cycles
 Optimization completed.
    -- Stationary point found.
 Normal termination of Gaussian 16 at Sat Feb 10 12:27:28 2024.

 ----------------------------------------------------------------------
 #P Geom=AllCheck Guess=TCheck SCRF=Check GenChk UB3LYP/6-311++G(d,p) F
 req
 ----------------------------------------------------------------------

 Structure from the checkpoint file:  "098-rad.chk"
 -------
 Radical
 -------
 Charge = -1 Multiplicity = 2

                          Input orientation:
 ---------------------------------------------------------------------
 Center     Atomic      Atomic             Coordinates (Angstroms)
 Number     Number       Type             X           Y           Z
 ---------------------------------------------------------------------
      1          6           0        1.331920    4.221755    5.156432
      2          6           0        1.821137    3.979762    3.817550
      3          6           0        1.589743    2.823991    3.109225
      4          6           0        0.851309    1.717693    3.713358
      5          6           0        0.353419    1.965475    5.048365
      6          6           0        0.537943    3.141092    5.732498
      7          8           0        1.626005    5.284034    5.771051
      8          8           0        0.672296    0.601301    3.156226
      9          1           0        2.397776    4.781861    3.371652
     10          6           0       -0.070699    3.239015    7.091464
     11          8           0       -0.078429    2.330780    7.902061
     12          8           0       -0.663724    4.419815    7.317305
     13          6           0       -1.282210    4.595306    8.609977
     14          1           0       -1.683010    5.605833    8.602371
     15          1           0       -0.541752    4.484517    9.402567
     16          1           0       -2.082468    3.868389    8.751333
     17          6           0        2.070833    2.719250    1.703921
     18          8           0        3.267959    3.323435    1.534743
     19          8           0        1.474198    2.189261    0.788989
     20          6           0        3.788212    3.354434    0.189517
     21          1           0       -0.204049    1.156325    5.507888
     22          1           0        4.736600    3.881597    0.258637
     23          1           0        3.103397    3.886504   -0.471747
     24          1           0        3.942355    2.341115   -0.182363
 ---------------------------------------------------------------------

 SCF Done:  E(UB3LYP) =  -837.617123340     A.U. after    1 cycles

 Alpha  occ. eigenvalues --  -19.17348 -19.17209 -19.11815 -19.11680 -19.08931
 Alpha  occ. eigenvalues --  -19.08907 -10.31012 -10.30851 -10.23811 -10.23805
 Alpha  occ. eigenvalues --  -10.22353 -10.22305 -10.19222 -10.19192 -10.18307
 Alpha  occ. eigenvalues --  -10.18272  -1.11508  -1.11228  -1.02564  -1.02508
 Alpha  occ. eigenvalues --   -1.01231  -1.00973  -0.84647  -0.79349  -0.74299
 Alpha  occ. eigenvalues --   -0.72606  -0.69834  -0.64917  -0.60257  -0.58072
 Alpha  occ. eigenvalues --   -0.56087  -0.52375  -0.50919  -0.50409  -0.48866
 Alpha  occ. eigenvalues --   -0.48675  -0.48059  -0.46880  -0.44796  -0.44394
 Alpha  occ. eigenvalues --   -0.42874  -0.42112  -0.41629  -0.40622  -0.40122
 Alpha  occ. eigenvalues --   -0.39482  -0.38548  -0.37833  -0.36501  -0.36420
 Alpha  occ. eigenvalues --   -0.31600  -0.31472  -0.30287  -0.29770  -0.28999
 Alpha  occ. eigenvalues --   -0.27279  -0.25409  -0.24591  -0.17864
 Alpha virt. eigenvalues --   -0.06085  -0.00384  -0.00072   0.00229   0.00346
 Alpha virt. eigenvalues --    0.01583   0.01861   0.03154   0.03468   0.03603
 Alpha virt. eigenvalues --    0.03737   0.04722   0.05006   0.05553   0.05766

  Beta  occ. eigenvalues --  -19.17343 -19.17208 -19.11809 -19.11661 -19.08198
  Beta  occ. eigenvalues --  -19.08191 -10.31013 -10.30853 -10.23724 -10.23713
  Beta  occ. eigenvalues --  -10.22352 -10.22306 -10.19163 -10.19127 -10.18119
  Beta  occ. eigenvalues --  -10.18092  -1.11494  -1.11213  -1.02547  -1.02439
  Beta  occ. eigenvalues --   -1.00014  -0.99725  -0.84058  -0.79140  -0.74211
  Beta  occ. eigenvalues --   -0.72407  -0.68921  -0.64645  -0.59880  -0.57974
  Beta  occ. eigenvalues --   -0.56007  -0.52262  -0.50671  -0.50157  -0.48806
  Beta  occ. eigenvalues --   -0.48636  -0.47997  -0.46787  -0.44565  -0.44149
  Beta  occ. eigenvalues --   -0.42471  -0.41452  -0.40939  -0.40373  -0.39608
  Beta  occ. eigenvalues --   -0.38882  -0.37519  -0.36599  -0.36455  -0.35537
  Beta  occ. eigenvalues --   -0.31555  -0.31425  -0.29913  -0.29345  -0.26558
  Beta  occ. eigenvalues --   -0.26038  -0.24729  -0.23961
  Beta virt. eigenvalues --   -0.10659  -0.04953  -0.00303   0.00122   0.00429
  Beta virt. eigenvalues --    0.01611   0.01670   0.01891   0.03202   0.03517
  Beta virt. eigenvalues --    0.03709   0.03782   0.04742   0.05586   0.05668

 Mulliken charges and spin densities:
               1          2
     1  C   -1.000910   0.064489
     2  C    0.025252   0.129671
     3  C    1.006529   0.031145
     4  C   -1.099062   0.067711
     5  C   -0.082821   0.116210
     6  C    1.133221   0.046053
     7  O   -0.441976   0.265931
     8  O   -0.452142   0.259283
     9  H    0.205126  -0.010427
    10  C   -0.220148   0.004959
    11  O   -0.320002   0.001186
    12  O   -0.071920   0.001279
    13  C   -0.253885   0.000377
    14  H    0.172373   0.000124
    15  H    0.190680  -0.000037
    16  H    0.177992   0.000016
    17  C   -0.038255   0.027247
    18  O   -0.093738  -0.000999
    19  O   -0.320310   0.006218
    20  C   -0.249891  -0.000332
    21  H    0.197616  -0.010218
    22  H    0.170865   0.000070
    23  H    0.186232  -0.000051
    24  H    0.179174   0.000097
 Sum of Mulliken charges =  -1.00000   1.00000

 Dipole moment (field-independent basis, Debye):
    X=             -4.3859    Y=            -10.6342    Z=            -21.1631  Tot=             24.0873
 Quadrupole moment (field-independent basis, Debye-Ang):
   XX=            -90.3545   YY=           -142.7279   ZZ=           -200.8572
   XY=            -17.2289   XZ=            -35.4282   YZ=            -59.3334

  Exact polarizability: 158.108  31.165 244.925 -41.613  50.344 261.392
 Approx polarizability: 170.764  40.753 292.720 -21.643  59.280 262.337

                      1                      2                      3
                      A                      A                      A
 Frequencies --     24.9944                30.3240                40.9873
 Red. masses --      7.1282                 5.7653                 6.3294
 Frc consts  --      0.0026                 0.0031                 0.0063
 IR Inten    --      3.4438                 7.0549                 6.3302

                      4                      5                      6
                      A                      A                      A
 Frequencies --     90.2896               109.8436               120.5084
 Red. masses --      3.7004                 3.8045                 3.8916
 Frc consts  --      0.0178                 0.0270                 0.0333
 IR Inten    --      5.8556                 2.8195                 0.6522

                      7                      8                      9
                      A                      A                      A
 Frequencies --    140.7464               146.5366               152.4443
 Red. masses --      3.1339                 1.2305                 1.3592
 Frc consts  --      0.0366                 0.0156                 0.0186
 IR Inten    --     11.6997                 0.1190                 0.2210

                     10                     11                     12
                      A                      A                      A
 Frequencies --    208.6280               214.7061               239.9886
 Red. masses --      5.5421                 5.5084                 8.1161
 Frc consts  --      0.1421                 0.1496                 0.2754
 IR Inten    --     11.9866                 5.8344                 0.2903

                     13                     14                     15
                      A                      A                      A
 Frequencies --    276.8230               288.6997               328.4139
 Red. masses --      5.5400                 5.7593                 7.1517
 Frc consts  --      0.2501                 0.2828                 0.4545
 IR Inten    --     11.4085                 6.0935                27.6035

                     16                     17                     18
                      A                      A                      A
 Frequencies --    336.2568               363.3788               456.6297
 Red. masses --      6.1167                 6.1142                 4.0318
 Frc consts  --      0.4075                 0.4757                 0.4953
 IR Inten    --      5.0703                21.3880                 1.8838

                     19                     20                     21
                      A                      A                      A
 Frequencies --    478.3716               490.7171               523.3616
 Red. masses --     10.6866                12.2497                 7.9354
 Frc consts  --      1.4409                 1.7379                 1.2806
 IR Inten    --      1.3020                 0.9878                13.7352

                     22                     23                     24
                      A                      A                      A
 Frequencies --    583.2489               648.8823               714.3331
 Red. masses --      5.1790                 7.3628                 6.8721
 Frc consts  --      1.0380                 1.8265                 2.0661
 IR Inten    --      8.9244                 3.4907                 2.4955

                     25                     26                     27
                      A                      A                      A
 Frequencies --    724.3142               765.8200               790.7709
 Red. masses --      6.2073                 3.6365                 6.0283
 Frc consts  --      1.9187                 1.2566                 2.2210
 IR Inten    --      9.8402                22.3110                 8.9613

                     28                     29                     30
                      A                      A                      A
 Frequencies --    806.8119               816.6754               870.5396
 Red. masses --      6.1306                 9.2973                 4.1859
 Frc consts  --      2.3513                 3.6535                 1.8690
 IR Inten    --     95.0130                56.9246                36.2219

                     31                     32                     33
                      A                      A                      A
 Frequencies --    891.2126               916.0888               934.4967
 Red. masses --      1.8091                 1.5660                 6.2554
 Frc consts  --      0.8466                 0.7743                 3.2185
 IR Inten    --      5.4607                48.2853                15.2023

                     34                     35                     36
                      A                      A                      A
 Frequencies --    975.2521              1058.3633              1093.7641
 Red. masses --      5.4796                 8.7406                 3.7035
 Frc consts  --      3.0707                 5.7685                 2.6104
 IR Inten    --     20.0936                33.7267               318.3175

                     37                     38                     39
                      A                      A                      A
 Frequencies --   1156.6579              1165.5943              1166.8199
 Red. masses --      7.7942                 1.2992                 1.2816
 Frc consts  --      6.1437                 1.0399                 1.0280
 IR Inten    --    698.9542                 8.5130                 3.3686

                     40                     41                     42
                      A                      A                      A
 Frequencies --   1203.5872              1205.3630              1225.7959
 Red. masses --      1.5275                 1.6186                 3.4309
 Frc consts  --      1.3037                 1.3856                 3.0373
 IR Inten    --     96.9281               102.3560               397.4622

                     43                     44                     45
                      A                      A                      A
 Frequencies --   1243.5602              1262.3630              1328.4733
 Red. masses --      1.6840                 3.0648                 3.2105
 Frc consts  --      1.5343                 2.8775                 3.3384
 IR Inten    --    260.1074               351.6854                24.9091

                     46                     47                     48
                      A                      A                      A
 Frequencies --   1429.3565              1464.5013              1466.2120
 Red. masses --      6.3114                 1.2165                 1.2242
 Frc consts  --      7.5972                 1.5372                 1.5506
 IR Inten    --     23.0804                35.1003                 1.1683

                     49                     50                     51
                      A                      A                      A
 Frequencies --   1474.2950              1474.6687              1485.4097
 Red. masses --      1.0452                 1.0457                 1.0622
 Frc consts  --      1.3386                 1.3398                 1.3808
 IR Inten    --     14.6110                16.0055                27.8006

                     52                     53                     54
                      A                      A                      A
 Frequencies --   1485.9233              1491.3035              1500.8907
 Red. masses --      1.1682                 5.5232                 4.1208
 Frc consts  --      1.5197                 7.2372                 5.4693
 IR Inten    --     22.3227                36.3644               368.7008

                     55                     56                     57
                      A                      A                      A
 Frequencies --   1508.8308              1635.6015              1706.6828
 Red. masses --     10.2150                 7.5990                11.4262
 Frc consts  --     13.7016                11.9774                19.6091
 IR Inten    --   1153.3107                65.5441               694.5218

                     58                     59                     60
                      A                      A                      A
 Frequencies --   1728.0523              3051.9102              3053.0667
 Red. masses --     11.6556                 1.0298                 1.0297
 Frc consts  --     20.5069                 5.6510                 5.6549
 IR Inten    --    697.5185                50.9721                44.4975

                     61                     62                     63
                      A                      A                      A
 Frequencies --   3126.1374              3128.0510              3160.5133
 Red. masses --      1.1074                 1.1076                 1.1059
 Frc consts  --      6.3765                 6.3855                 6.5085
 IR Inten    --     29.9129                28.8808                19.3177

                     64                     65                     66
                      A                      A                      A
 Frequencies --   3162.3239              3175.5952              3185.5892
 Red. masses --      1.1060                 1.0899                 1.0900
 Frc consts  --      6.5165                 6.4754                 6.5169
 IR Inten    --     19.3250                12.9361                 6.4844

 - Thermochemistry -
 -------------------
 Temperature   298.150 Kelvin.  Pressure   1.00000 Atm.
 Atom     1 has atomic number  6 and mass  12.00000

 Molecular mass:   224.03209 amu.
 Principal axes and moments of inertia in atomic units:
                           1         2         3
     Eigenvalues --  1399.952826858.776317911.33937
           X           -0.41357   0.40926   0.81330
           Y            0.15568   0.91191  -0.37972
           Z            0.89706   0.03043   0.44085
 This molecule is an asymmetric top.
 Rotational symmetry number  1.
 Warning -- assumption of classical behavior for rotation
           may cause significant error
 Rotational temperatures (Kelvin)      0.06187     0.01263     0.01095
 Rotational constants (GHZ):           1.28914     0.26313     0.22812
 Zero-point vibrational energy     439665.6 (Joules/Mol)
                                  105.08261 (Kcal/Mol)
 Warning -- explicit consideration of  22 degrees of freedom as
           vibrations may cause significant error
 Vibrational temperatures:     35.96    43.63    58.97   129.91   158.04
          (Kelvin)            173.38   202.50   210.83   219.33   300.17
                              308.91   345.29   398.29   415.37   472.51
                              483.80   522.82   656.99   688.27   706.03
                              753.00   839.17   933.60  1027.77  1042.13
                             1101.84  1137.74  1160.82  1175.01  1252.51
                             1282.26  1318.05  1344.53  1403.17  1522.75
                             1573.68  1664.17  1677.03  1678.79  1731.69
                             1734.25  1763.65  1789.21  1816.26  1911.38
                             2056.53  2107.09  2109.55  2121.18  2121.72
                             2137.17  2137.91  2145.65  2159.45  2170.87
                             2353.27  2455.54  2486.28  4391.02  4392.68
                             4497.81  4500.57  4547.27  4549.88  4568.97
                             4583.35

 Zero-point correction=                           0.167460 (Hartree/Particle)
 Thermal correction to Energy=                    0.182891
 Thermal correction to Enthalpy=                  0.183835
 Thermal correction to Gibbs Free Energy=         0.121870
 Sum of electronic and zero-point Energies=           -837.449664
 Sum of electronic and thermal Energies=              -837.434233
 Sum of electronic and thermal Enthalpies=            -837.433288
 Sum of electronic and thermal Free Energies=         -837.495253

                     E (Thermal)             CV                S
                      KCal/Mol        Cal/Mol-Kelvin    Cal/Mol-Kelvin
 Total                  114.766             54.085            130.415
 Electronic               0.000              0.000              1.377
 Translational            0.889              2.981             42.122
 Rotational               0.889              2.981             32.696
 Vibrational            112.988             48.123             54.219
 Vibration     1          0.593              1.985              6.192
 Vibration     2          0.594              1.984              5.808
 Vibration     3          0.594              1.981              5.211
 Vibration     4          0.602              1.956              3.654
 Vibration     5          0.606              1.941              3.272
 Vibration     6          0.609              1.932              3.092
 Vibration     7          0.615              1.913              2.794
 Vibration     8          0.617              1.906              2.717
 Vibration     9          0.619              1.900              2.641
 Vibration    10          0.642              1.828              2.056
 Vibration    11          0.645              1.819              2.003
 Vibration    12          0.657              1.779              1.803
 Vibration    13          0.678              1.716              1.553
 Vibration    14          0.685              1.695              1.482
 Vibration    15          0.712              1.619              1.268
 Vibration    16          0.717              1.603              1.230
 Vibration    17          0.737              1.548              1.108
 Vibration    18          0.815              1.346              0.776
 Vibration    19          0.835              1.298              0.714
 Vibration    20          0.847              1.271              0.682
 Vibration    21          0.878              1.198              0.602
 Vibration    22          0.940              1.068              0.479

                           ! Non-Optimized Parameters !
 Normal termination of Gaussian 16 at Sat Feb 10 13:13:39 2024.
