 Q-Chem 5.4, Q-Chem, Inc., Pleasanton, CA (2021)
 Q-Chem 5.4.0 for Intel X86 EM64T Linux

User input:
--------------------------------------------------------------
$molecule
-1 2
C                 -2.7921580000     -0.8831600000     -0.9658580000
C                 -1.4455880000     -0.4094010000     -0.4688130000
C                 -0.2969290000     -1.1223250000     -0.7740360000
C                  0.9789480000     -0.7228050000     -0.3353340000
C                  2.1655820000     -1.5245180000     -0.6931570000
O                  2.0759460000     -2.5728030000     -1.3899550000
C                  3.4161230000     -1.0239550000     -0.1919170000
C                  3.5235360000      0.1207010000      0.5702780000
C                  2.3959860000      0.9308210000      0.9417930000
O                  2.5029050000      1.9768590000      1.6395210000
C                  1.0893450000      0.4536270000      0.4480410000
C                 -0.0816590000      1.1715730000      0.7534230000
C                 -1.3347810000      0.7712300000      0.3172750000
C                 -2.5609630000      1.5799070000      0.6740210000
H                 -2.6859230000     -1.8009680000     -1.5485470000
H                 -3.4852470000     -1.0895400000     -0.1407360000
H                 -3.2801370000     -0.1364260000     -1.6046740000
H                 -0.3506360000     -2.0267540000     -1.3718370000
H                  4.3001980000     -1.6026650000     -0.4463380000
H                  4.4935810000      0.4580490000      0.9258380000
H                  0.0336100000      2.0679400000      1.3546700000
H                 -3.2896380000      0.9910030000      1.2450100000
H                 -2.2870760000      2.4472500000      1.2788830000
H                 -3.0850270000      1.9463590000     -0.2175500000
$end

$rem
BASIS  =  6-311++G(d,p)
GUI  =  2
JOB_TYPE  =  SP
METHOD  =  B3LYP
SCF_CONVERGENCE  = 8
SOLVENT_METHOD = sm12
$end

$smx
solvent dimethylformamide
charges CM5
$end

--------------------------------------------------------------

             Standard Nuclear Orientation (Angstroms)
    I     Atom           X                Y                Z
 ----------------------------------------------------------------
    1      C      -2.7921580000    -0.8831600000    -0.9658580000
    2      C      -1.4455880000    -0.4094010000    -0.4688130000
    3      C      -0.2969290000    -1.1223250000    -0.7740360000
    4      C       0.9789480000    -0.7228050000    -0.3353340000
    5      C       2.1655820000    -1.5245180000    -0.6931570000
    6      O       2.0759460000    -2.5728030000    -1.3899550000
    7      C       3.4161230000    -1.0239550000    -0.1919170000
    8      C       3.5235360000     0.1207010000     0.5702780000
    9      C       2.3959860000     0.9308210000     0.9417930000
   10      O       2.5029050000     1.9768590000     1.6395210000
   11      C       1.0893450000     0.4536270000     0.4480410000
   12      C      -0.0816590000     1.1715730000     0.7534230000
   13      C      -1.3347810000     0.7712300000     0.3172750000
   14      C      -2.5609630000     1.5799070000     0.6740210000
   15      H      -2.6859230000    -1.8009680000    -1.5485470000
   16      H      -3.4852470000    -1.0895400000    -0.1407360000
   17      H      -3.2801370000    -0.1364260000    -1.6046740000
   18      H      -0.3506360000    -2.0267540000    -1.3718370000
   19      H       4.3001980000    -1.6026650000    -0.4463380000
   20      H       4.4935810000     0.4580490000     0.9258380000
   21      H       0.0336100000     2.0679400000     1.3546700000
   22      H      -3.2896380000     0.9910030000     1.2450100000
   23      H      -2.2870760000     2.4472500000     1.2788830000
   24      H      -3.0850270000     1.9463590000    -0.2175500000
 ----------------------------------------------------------------

   15    -613.9801065693      6.07e-09  Convergence criterion met
 Total energy in the final basis set =     -614.0719933970

                    Orbital Energies (a.u.)
 --------------------------------------------------------------

 Alpha MOs
 -- Occupied --
-19.0777 -19.0777 -10.2241 -10.2241 -10.1887 -10.1882 -10.1782 -10.1778
-10.1747 -10.1747 -10.1730 -10.1729 -10.1701 -10.1695  -1.0003  -0.9981
 -0.8694  -0.8173  -0.7727  -0.7699  -0.7134  -0.6872  -0.6702  -0.6109
 -0.5970  -0.5661  -0.5004  -0.4938  -0.4813  -0.4467  -0.4409  -0.4353
 -0.4318  -0.4145  -0.4110  -0.4037  -0.3945  -0.3915  -0.3878  -0.3792
 -0.3772  -0.3485  -0.3427  -0.3404  -0.2804  -0.2589  -0.2486  -0.2439
 -0.2381  -0.1572

 Beta MOs
 -- Occupied --
-19.0709 -19.0709 -10.2229 -10.2229 -10.1884 -10.1880 -10.1778 -10.1773
-10.1747 -10.1746 -10.1730 -10.1730 -10.1684 -10.1678  -0.9887  -0.9862
 -0.8681  -0.8123  -0.7717  -0.7674  -0.7109  -0.6860  -0.6615  -0.6102
 -0.5942  -0.5632  -0.4992  -0.4914  -0.4776  -0.4455  -0.4397  -0.4348
 -0.4296  -0.4053  -0.4033  -0.4004  -0.3925  -0.3905  -0.3865  -0.3768
 -0.3508  -0.3472  -0.3393  -0.3341  -0.2526  -0.2506  -0.2417  -0.2376
 -0.2320

          Ground-State Mulliken Net Atomic Charges

     Atom                 Charge (a.u.)    Spin (a.u.)
  --------------------------------------------------------
      1 C                     1.196504      -0.001228
      2 C                     1.705154       0.016053
      3 C                    -1.123738       0.037241
      4 C                    -1.593405       0.018826
      5 C                    -1.411365       0.046813
      6 O                    -0.346020       0.247099
      7 C                     0.034387       0.147850
      8 C                     0.030453       0.147695
      9 C                    -1.404087       0.047044
     10 O                    -0.346538       0.247002
     11 C                    -1.602966       0.018602
     12 C                    -1.127862       0.037380
     13 C                     1.692576       0.016138
     14 C                     1.197879      -0.001212
     15 H                     0.320738       0.000063
     16 H                     0.252607       0.001142
     17 H                     0.252554       0.001146
     18 H                     0.011045      -0.002967
     19 H                     0.213103      -0.012034
     20 H                     0.212923      -0.012021
     21 H                     0.011365      -0.002976
     22 H                     0.252221       0.001138
     23 H                     0.320227       0.000065
     24 H                     0.252244       0.001141
  --------------------------------------------------------
  Sum of atomic charges =    -1.000000

                    Cartesian Multipole Moments
 -----------------------------------------------------------------
    Charge (ESU x 10^10)
                -4.8032
    Dipole Moment (Debye)
         X     -11.8441      Y       1.5404      Z      -0.6475
       Tot      11.9613
    Quadrupole Moments (Debye-Ang)
        XX    -108.7800     XY       0.4971     YY    -111.5144
        XZ      -2.5250     YZ     -15.0395     ZZ     -98.5422

 Total job time:  538.62s(wall), 3348.62s(cpu)
        *  Thank you very much for using Q-Chem.  Have a nice day.  *
