 Gaussian 16, Revision A.03,
 Gaussian 16:  ES64L-G16RevA.03 25-Dec-2016

 ----------------------------------------------------------------------
 #P UB3LYP/6-311++G(d,p) nosym opt freq SCRF=(PCM,Solvent=n,n-DiMethylF
 ormamide)
 ----------------------------------------------------------------------

 -------
 Radical
 -------
 Symbolic Z-matrix:
 Charge = -1 Multiplicity = 2

 SCF Done:  E(UB3LYP) =  -610.674696802     A.U. after   19 cycles
 SCF Done:  E(UB3LYP) =  -610.674846262     A.U. after   14 cycles
 SCF Done:  E(UB3LYP) =  -610.674862955     A.U. after   12 cycles
 SCF Done:  E(UB3LYP) =  -610.674871584     A.U. after   12 cycles
 SCF Done:  E(UB3LYP) =  -610.674872136     A.U. after   10 cycles
 SCF Done:  E(UB3LYP) =  -610.674872479     A.U. after   10 cycles
 Optimization completed.
    -- Stationary point found.
 Normal termination of Gaussian 16 at Sun Feb 11 01:35:17 2024.

 ----------------------------------------------------------------------
 #P Geom=AllCheck Guess=TCheck SCRF=Check GenChk UB3LYP/6-311++G(d,p) F
 req
 ----------------------------------------------------------------------

 Structure from the checkpoint file:  "280-rad.chk"
 -------
 Radical
 -------
 Charge = -1 Multiplicity = 2

                          Input orientation:
 ---------------------------------------------------------------------
 Center     Atomic      Atomic             Coordinates (Angstroms)
 Number     Number       Type             X           Y           Z
 ---------------------------------------------------------------------
      1          8           0        2.321685    1.653640    0.349914
      2          6           0        1.660219    0.479737    0.220319
      3          6           0        2.375424   -0.713810    0.255510
      4          6           0        1.701959   -1.933851    0.122113
      5          6           0        0.325091   -1.973189   -0.045292
      6          6           0       -0.419587   -0.781810   -0.083800
      7          6           0       -1.883741   -0.827616   -0.261090
      8          8           0       -2.502025   -1.925274   -0.380064
      9          6           0       -2.563160    0.436807   -0.290418
     10          6           0       -1.908261    1.641916   -0.160767
     11          6           0       -0.495215    1.723596    0.013890
     12          8           0        0.111609    2.853119    0.136049
     13          6           0        0.246799    0.468262    0.049720
     14          1           0        1.606080    2.361720    0.294344
     15          1           0        3.450953   -0.678304    0.386433
     16          1           0        2.270039   -2.857630    0.150837
     17          1           0       -0.197955   -2.915289   -0.148510
     18          1           0       -3.640616    0.411207   -0.421210
     19          1           0       -2.459298    2.576767   -0.187980
 ---------------------------------------------------------------------

 SCF Done:  E(UB3LYP) =  -610.674872479     A.U. after    1 cycles

 Alpha  occ. eigenvalues --  -19.13195 -19.09254 -19.08029 -10.23664 -10.23260
 Alpha  occ. eigenvalues --  -10.22592 -10.17868 -10.17737 -10.17693 -10.16819
 Alpha  occ. eigenvalues --  -10.16798 -10.16737 -10.16539  -1.05453  -1.00377
 Alpha  occ. eigenvalues --   -1.00051  -0.85790  -0.80809  -0.74713  -0.74253
 Alpha  occ. eigenvalues --   -0.68142  -0.62902  -0.61752  -0.57320  -0.51436
 Alpha  occ. eigenvalues --   -0.50810  -0.50095  -0.47606  -0.45019  -0.43177
 Alpha  occ. eigenvalues --   -0.43108  -0.42130  -0.40163  -0.39275  -0.39250
 Alpha  occ. eigenvalues --   -0.38051  -0.37871  -0.36016  -0.34803  -0.33200
 Alpha  occ. eigenvalues --   -0.28419  -0.25768  -0.25636  -0.24318  -0.23169
 Alpha  occ. eigenvalues --   -0.16047
 Alpha virt. eigenvalues --   -0.02749  -0.02131   0.00021   0.01012   0.01466
 Alpha virt. eigenvalues --    0.02700   0.03253   0.04520   0.04927   0.05073
 Alpha virt. eigenvalues --    0.05536   0.06752   0.07160   0.07796   0.07981

  Beta  occ. eigenvalues --  -19.13170 -19.08694 -19.07381 -10.23648 -10.23043
  Beta  occ. eigenvalues --  -10.22462 -10.17821 -10.17752 -10.17659 -10.16764
  Beta  occ. eigenvalues --  -10.16654 -10.16563 -10.16508  -1.05323  -0.99434
  Beta  occ. eigenvalues --   -0.98919  -0.85571  -0.80273  -0.74496  -0.74034
  Beta  occ. eigenvalues --   -0.67199  -0.62646  -0.61508  -0.57091  -0.51263
  Beta  occ. eigenvalues --   -0.50627  -0.49798  -0.47307  -0.44925  -0.42969
  Beta  occ. eigenvalues --   -0.42254  -0.41699  -0.39834  -0.39046  -0.37942
  Beta  occ. eigenvalues --   -0.37856  -0.35843  -0.35589  -0.34643  -0.32395
  Beta  occ. eigenvalues --   -0.25593  -0.25290  -0.25112  -0.23735  -0.22350
  Beta virt. eigenvalues --   -0.09481  -0.01694  -0.01003   0.00041   0.01023
  Beta virt. eigenvalues --    0.01492   0.02722   0.03271   0.04850   0.05114
  Beta virt. eigenvalues --    0.05549   0.05992   0.06781   0.07550   0.07996

 Mulliken charges and spin densities:
               1          2
     1  O   -0.400509   0.008537
     2  C   -0.094835   0.033955
     3  C   -0.145586   0.038119
     4  C   -0.343068   0.025122
     5  C   -0.131039   0.048063
     6  C    0.430506   0.030733
     7  C   -0.465175   0.083297
     8  O   -0.491584   0.233856
     9  C   -0.046036   0.140740
    10  C   -0.182057   0.065034
    11  C   -0.445916   0.133649
    12  O   -0.527926   0.198258
    13  C    0.568265  -0.006194
    14  H    0.362486  -0.004228
    15  H    0.187718  -0.003286
    16  H    0.190253  -0.002001
    17  H    0.161046  -0.003454
    18  H    0.185465  -0.011331
    19  H    0.187992  -0.008870
 Sum of Mulliken charges =  -1.00000   1.00000

 Dipole moment (field-independent basis, Debye):
    X=              3.1257    Y=             -1.7124    Z=              0.2939  Tot=              3.5761
 Quadrupole moment (field-independent basis, Debye-Ang):
   XX=            -95.9165   YY=           -103.1592   ZZ=            -80.9278
   XY=            -19.2781   XZ=             -2.6579   YZ=             -3.2741

  Exact polarizability: 270.395   8.769 272.465  21.293   8.521  99.337
 Approx polarizability: 297.076  21.856 321.503  23.520  11.624 112.617

                      1                      2                      3
                      A                      A                      A
 Frequencies --     97.9265               120.1397               185.5541
 Red. masses --      7.3762                 7.5206                 5.3499
 Frc consts  --      0.0417                 0.0640                 0.1085
 IR Inten    --     11.5057                 4.4270                 0.2548

                      4                      5                      6
                      A                      A                      A
 Frequencies --    252.6489               289.6588               337.0846
 Red. masses --      5.1777                 7.2894                 5.0476
 Frc consts  --      0.1947                 0.3603                 0.3379
 IR Inten    --      0.3385                 0.6097                 0.2064

                      7                      8                      9
                      A                      A                      A
 Frequencies --    383.9758               420.4398               464.1838
 Red. masses --      7.8272                10.5024                11.3802
 Frc consts  --      0.6799                 1.0938                 1.4447
 IR Inten    --     61.1340                 8.0389                 7.9737

                     10                     11                     12
                      A                      A                      A
 Frequencies --    467.7695               477.7837               528.2462
 Red. masses --      4.2134                 6.1637                 3.6974
 Frc consts  --      0.5432                 0.8290                 0.6079
 IR Inten    --      0.1458                 8.0652                 0.0961

                     13                     14                     15
                      A                      A                      A
 Frequencies --    534.5092               630.1649               637.8016
 Red. masses --      7.4649                 4.6114                 2.9763
 Frc consts  --      1.2566                 1.0789                 0.7133
 IR Inten    --      2.2397                 7.7790                 0.6536

                     16                     17                     18
                      A                      A                      A
 Frequencies --    643.1168               683.3734               747.8182
 Red. masses --      7.4531                 3.6033                 2.5684
 Frc consts  --      1.8162                 0.9914                 0.8463
 IR Inten    --     45.9565                 6.3895                45.7510

                     19                     20                     21
                      A                      A                      A
 Frequencies --    763.6773               794.5441               796.3474
 Red. masses --      6.7735                 5.4913                 1.9586
 Frc consts  --      2.3275                 2.0425                 0.7318
 IR Inten    --     65.9195                 6.6897               124.4764

                     22                     23                     24
                      A                      A                      A
 Frequencies --    828.5990               893.1398               912.3944
 Red. masses --      1.9318                 1.4378                 1.0617
 Frc consts  --      0.7815                 0.6758                 0.5207
 IR Inten    --     31.7618                12.9699               117.9779

                     25                     26                     27
                      A                      A                      A
 Frequencies --    938.8067               957.2933               981.8948
 Red. masses --      1.2793                 6.2244                 1.2865
 Frc consts  --      0.6643                 3.3607                 0.7308
 IR Inten    --      0.0022                80.0097                 0.6229

                     28                     29                     30
                      A                      A                      A
 Frequencies --   1060.8721              1092.3084              1134.6491
 Red. masses --      2.9807                 1.6151                 2.2578
 Frc consts  --      1.9765                 1.1354                 1.7126
 IR Inten    --     68.8932                 7.4617                29.9194

                     31                     32                     33
                      A                      A                      A
 Frequencies --   1168.8858              1186.1937              1260.6380
 Red. masses --      1.1718                 1.8319                 4.2615
 Frc consts  --      0.9433                 1.5186                 3.9902
 IR Inten    --     27.0849                87.9022                10.2206

                     34                     35                     36
                      A                      A                      A
 Frequencies --   1276.1496              1291.4871              1343.0033
 Red. masses --      2.1993                 3.5200                 3.9429
 Frc consts  --      2.1102                 3.4592                 4.1900
 IR Inten    --    337.2765               101.8395                46.3545

                     37                     38                     39
                      A                      A                      A
 Frequencies --   1398.6073              1410.5876              1444.8541
 Red. masses --      2.6596                 8.6342                 2.7119
 Frc consts  --      3.0652                10.1221                 3.3356
 IR Inten    --    181.7869               487.8412                21.3950

                     40                     41                     42
                      A                      A                      A
 Frequencies --   1470.9056              1502.4241              1539.8279
 Red. masses --      6.2236                 2.3948                 4.7161
 Frc consts  --      7.9335                 3.1850                 6.5883
 IR Inten    --    116.9753               745.0384               706.6515

                     43                     44                     45
                      A                      A                      A
 Frequencies --   1572.2894              1620.0975              1653.8973
 Red. masses --      2.8384                 6.3543                 3.2689
 Frc consts  --      4.1342                 9.8265                 5.2684
 IR Inten    --     30.9617                80.2382               121.3941

                     46                     47                     48
                      A                      A                      A
 Frequencies --   2923.3887              3152.2051              3163.1467
 Red. masses --      1.0739                 1.0860                 1.0872
 Frc consts  --      5.4076                 6.3580                 6.4088
 IR Inten    --    902.5115                35.6659                17.3313

                     49                     50                     51
                      A                      A                      A
 Frequencies --   3170.0389              3182.5013              3197.3173
 Red. masses --      1.0944                 1.0926                 1.0927
 Frc consts  --      6.4798                 6.5199                 6.5817
 IR Inten    --     31.3944                22.7699                16.8211

 - Thermochemistry -
 -------------------
 Temperature   298.150 Kelvin.  Pressure   1.00000 Atm.
 Atom     1 has atomic number  8 and mass  15.99491

 Molecular mass:   174.03169 amu.
 Principal axes and moments of inertia in atomic units:
                           1         2         3
     Eigenvalues --  1552.518221985.344683537.86175
           X            0.92725  -0.35495  -0.11922
           Y            0.35245   0.93488  -0.04213
           Z            0.12641  -0.00296   0.99197
 This molecule is an asymmetric top.
 Rotational symmetry number  1.
 Warning -- assumption of classical behavior for rotation
           may cause significant error
 Rotational temperatures (Kelvin)      0.05579     0.04363     0.02448
 Rotational constants (GHZ):           1.16246     0.90903     0.51012
 Zero-point vibrational energy     352809.7 (Joules/Mol)
                                   84.32353 (Kcal/Mol)
 Warning -- explicit consideration of  13 degrees of freedom as
           vibrations may cause significant error
 Vibrational temperatures:    140.89   172.85   266.97   363.51   416.75
          (Kelvin)            484.99   552.46   604.92   667.86   673.02
                              687.42   760.03   769.04   906.67   917.65
                              925.30   983.22  1075.94  1098.76  1143.17
                             1145.77  1192.17  1285.03  1312.73  1350.73
                             1377.33  1412.73  1526.36  1571.59  1632.51
                             1681.77  1706.67  1813.78  1836.09  1858.16
                             1932.28  2012.28  2029.52  2078.82  2116.31
                             2161.65  2215.47  2262.17  2330.96  2379.59
                             4206.10  4535.32  4551.06  4560.98  4578.91
                             4600.23

 Zero-point correction=                           0.134378 (Hartree/Particle)
 Thermal correction to Energy=                    0.143680
 Thermal correction to Enthalpy=                  0.144624
 Thermal correction to Gibbs Free Energy=         0.099107
 Sum of electronic and zero-point Energies=           -610.540494
 Sum of electronic and thermal Energies=              -610.531193
 Sum of electronic and thermal Enthalpies=            -610.530249
 Sum of electronic and thermal Free Energies=         -610.575765

                     E (Thermal)             CV                S
                      KCal/Mol        Cal/Mol-Kelvin    Cal/Mol-Kelvin
 Total                   90.160             37.939             95.798
 Electronic               0.000              0.000              1.377
 Translational            0.889              2.981             41.370
 Rotational               0.889              2.981             30.767
 Vibrational             88.383             31.977             22.283
 Vibration     1          0.603              1.951              3.495
 Vibration     2          0.609              1.932              3.098
 Vibration     3          0.632              1.860              2.272
 Vibration     4          0.664              1.758              1.712
 Vibration     5          0.686              1.693              1.476
 Vibration     6          0.718              1.601              1.226
 Vibration     7          0.753              1.504              1.023
 Vibration     8          0.783              1.426              0.890
 Vibration     9          0.822              1.330              0.754
 Vibration    10          0.825              1.322              0.744
 Vibration    11          0.834              1.299              0.716
 Vibration    12          0.883              1.187              0.591
 Vibration    13          0.889              1.174              0.577

 Optimization completed.
    -- Stationary point found.
 Normal termination of Gaussian 16 at Sun Feb 11 01:54:21 2024.
