 Gaussian 16, Revision A.03,
 Gaussian 16:  ES64L-G16RevA.03 25-Dec-2016

 ----------------------------------------------------------------
 #P UB3LYP/6-311++G(d,p) SCRF=(PCM,Solvent=n,n-DiMethylFormamide)
 ----------------------------------------------------------------

 -------
 Reduced
 -------
 Symbolic Z-matrix:
 Charge = -2 Multiplicity = 1

                         Standard orientation:
 ---------------------------------------------------------------------
 Center     Atomic      Atomic             Coordinates (Angstroms)
 Number     Number       Type             X           Y           Z
 ---------------------------------------------------------------------
      1          6           0        3.655825   -0.426446    0.119499
      2          6           0        4.132305   -1.715588    0.084437
      3          6           0        3.228145   -2.810461   -0.040769
      4          6           0        2.257525   -0.141521    0.030686
      5          6           0        1.339527   -1.251807   -0.100014
      6          6           0        1.872928   -2.561673   -0.127908
      7          6           0        1.767292    1.170843    0.067655
      8          6           0       -0.094135   -1.064255   -0.198595
      9          6           0        0.377619    1.419094   -0.038884
     10          6           0       -0.555658    0.316976   -0.181260
     11          6           0       -0.093058    2.817543   -0.019755
     12          6           0       -1.470670    3.036138   -0.155507
     13          6           0       -2.374090    1.962368   -0.304572
     14          6           0       -1.935830    0.664606   -0.311964
     15          8           0        2.659767    2.208151    0.199383
     16          8           0       -0.881790   -2.070808   -0.291778
     17          1           0        4.334233    0.414222    0.216334
     18          1           0        5.202872   -1.901273    0.154466
     19          1           0        3.605575   -3.830545   -0.065042
     20          1           0        1.154982   -3.370378   -0.220709
     21          1           0       -3.438520    2.148709   -0.424016
     22          8           0        0.757432    3.797787    0.112522
     23          8           0       -2.907374   -0.333187   -0.596081
     24          6           0       -3.281776   -1.193924    0.370151
     25          6           0       -3.879502   -2.435210   -0.253105
     26          8           0       -3.224754   -0.987635    1.560715
     27          1           0       -1.825253    4.063083   -0.145351
     28          1           0        2.054632    3.033206    0.190893
     29          1           0       -3.032645   -3.018113   -0.622870
     30          1           0       -4.522982   -2.174344   -1.098218
     31          1           0       -4.437844   -2.999120    0.495851
 ---------------------------------------------------------------------

 SCF Done:  E(UB3LYP) =  -992.408339818     A.U. after   16 cycles

 The electronic state is 1-A.
 Alpha  occ. eigenvalues --  -19.15097 -19.10304 -19.09410 -19.05009 -19.02971
 Alpha  occ. eigenvalues --  -10.29547 -10.19976 -10.19893 -10.19339 -10.18946
 Alpha  occ. eigenvalues --  -10.16018 -10.15820 -10.15520 -10.15438 -10.15390
 Alpha  occ. eigenvalues --  -10.15287 -10.15278 -10.15258 -10.14852 -10.14480
 Alpha  occ. eigenvalues --  -10.13070  -1.09376  -1.01463  -1.01223  -0.95783
 Alpha  occ. eigenvalues --   -0.95174  -0.83853  -0.81832  -0.76923  -0.74319
 Alpha  occ. eigenvalues --   -0.73407  -0.71569  -0.69815  -0.65695  -0.61536
 Alpha  occ. eigenvalues --   -0.60615  -0.59351  -0.55529  -0.53334  -0.51698
 Alpha  occ. eigenvalues --   -0.49197  -0.48507  -0.47308  -0.46685  -0.45168
 Alpha  occ. eigenvalues --   -0.44929  -0.43860  -0.42695  -0.41605  -0.40529
 Alpha  occ. eigenvalues --   -0.40345  -0.39704  -0.39543  -0.37924  -0.37530
 Alpha  occ. eigenvalues --   -0.36924  -0.36221  -0.35972  -0.35628  -0.34492
 Alpha  occ. eigenvalues --   -0.33790  -0.32750  -0.32208  -0.31373  -0.30143
 Alpha  occ. eigenvalues --   -0.28706  -0.27292  -0.25250  -0.23655  -0.22628
 Alpha  occ. eigenvalues --   -0.22388  -0.20355  -0.18553  -0.12301
 Alpha virt. eigenvalues --   -0.02814  -0.00356   0.00038   0.00681   0.01025
 Alpha virt. eigenvalues --    0.01324   0.02167   0.02633   0.02905   0.03608
 Alpha virt. eigenvalues --    0.04039   0.04521   0.04745   0.05368   0.06097

  Beta  occ. eigenvalues --  -19.15097 -19.10304 -19.09410 -19.05009 -19.02971
  Beta  occ. eigenvalues --  -10.29547 -10.19976 -10.19893 -10.19339 -10.18946
  Beta  occ. eigenvalues --  -10.16018 -10.15820 -10.15520 -10.15438 -10.15390
  Beta  occ. eigenvalues --  -10.15287 -10.15278 -10.15258 -10.14852 -10.14480
  Beta  occ. eigenvalues --  -10.13070  -1.09376  -1.01463  -1.01223  -0.95783
  Beta  occ. eigenvalues --   -0.95174  -0.83853  -0.81832  -0.76923  -0.74319
  Beta  occ. eigenvalues --   -0.73407  -0.71569  -0.69815  -0.65695  -0.61536
  Beta  occ. eigenvalues --   -0.60615  -0.59351  -0.55529  -0.53334  -0.51698
  Beta  occ. eigenvalues --   -0.49197  -0.48507  -0.47308  -0.46685  -0.45168
  Beta  occ. eigenvalues --   -0.44929  -0.43860  -0.42695  -0.41605  -0.40529
  Beta  occ. eigenvalues --   -0.40345  -0.39704  -0.39543  -0.37924  -0.37530
  Beta  occ. eigenvalues --   -0.36924  -0.36221  -0.35972  -0.35628  -0.34492
  Beta  occ. eigenvalues --   -0.33790  -0.32750  -0.32208  -0.31373  -0.30143
  Beta  occ. eigenvalues --   -0.28706  -0.27292  -0.25250  -0.23655  -0.22628
  Beta  occ. eigenvalues --   -0.22388  -0.20355  -0.18553  -0.12301
  Beta virt. eigenvalues --   -0.02814  -0.00356   0.00038   0.00681   0.01025
  Beta virt. eigenvalues --    0.01324   0.02167   0.02633   0.02905   0.03608
  Beta virt. eigenvalues --    0.04039   0.04521   0.04745   0.05368   0.06097

 Mulliken charges and spin densities:
               1          2
     1  C   -0.201431  -0.000000
     2  C   -0.451315  -0.000000
     3  C   -0.410956  -0.000000
     4  C    0.298970  -0.000000
     5  C    0.327705   0.000000
     6  C   -0.102782   0.000000
     7  C   -0.326245  -0.000000
     8  C   -0.281148  -0.000000
     9  C    0.629266   0.000000
    10  C    0.457581   0.000000
    11  C   -0.594423  -0.000000
    12  C   -0.249573   0.000000
    13  C    0.051371   0.000000
    14  C   -0.546589  -0.000000
    15  O   -0.525357  -0.000000
    16  O   -0.571699  -0.000000
    17  H    0.165225   0.000000
    18  H    0.162789  -0.000000
    19  H    0.167623   0.000000
    20  H    0.142972  -0.000000
    21  H    0.171446   0.000000
    22  O   -0.644515  -0.000000
    23  O   -0.038138   0.000000
    24  C    0.081176   0.000000
    25  C   -0.449603  -0.000000
    26  O   -0.333397  -0.000000
    27  H    0.152847   0.000000
    28  H    0.411974   0.000000
    29  H    0.195945  -0.000000
    30  H    0.161203   0.000000
    31  H    0.149078  -0.000000
 Sum of Mulliken charges =  -2.00000  -0.00000

 Dipole moment (field-independent basis, Debye):
    X=             -1.8480    Y=             -6.6452    Z=             -2.1798  Tot=              7.2336
 Quadrupole moment (field-independent basis, Debye-Ang):
   XX=           -159.6491   YY=           -185.0678   ZZ=           -140.2221
   XY=            -11.7619   XZ=              7.3048   YZ=              0.0491

 Normal termination of Gaussian 16 at Sun Jan 14 01:37:34 2024.
