 Gaussian 16, Revision A.03,
 Gaussian 16:  ES64L-G16RevA.03 25-Dec-2016

 ----------------------------------------------------------------
 #P UB3LYP/6-311++G(d,p) SCRF=(PCM,Solvent=n,n-DiMethylFormamide)
 ----------------------------------------------------------------

 ------------------
 Radical PCM in DMF
 ------------------
 Symbolic Z-matrix:
 Charge = -1 Multiplicity = 2

                         Standard orientation:
 ---------------------------------------------------------------------
 Center     Atomic      Atomic             Coordinates (Angstroms)
 Number     Number       Type             X           Y           Z
 ---------------------------------------------------------------------
      1          6           0       -3.752210   -1.685789   -0.000011
      2          6           0       -5.039304   -1.186902    0.000011
      3          6           0       -5.253163    0.209221    0.000077
      4          6           0       -2.632949   -0.824381    0.000021
      5          6           0       -2.848540    0.584899    0.000067
      6          6           0       -4.174800    1.070923    0.000100
      7          6           0       -1.287607   -1.404162    0.000001
      8          6           0       -0.182320   -0.445329   -0.000052
      9          6           0       -0.395583    0.961631   -0.000012
     10          6           0       -1.738608    1.540815    0.000096
     11          6           0        1.143435   -0.929285   -0.000136
     12          6           0        2.199509   -0.051343   -0.000193
     13          6           0        2.031748    1.357185   -0.000204
     14          6           0        0.725342    1.817315   -0.000114
     15          8           0       -1.093094   -2.644152   -0.000146
     16          8           0       -1.927455    2.782964   -0.000010
     17         35           0        3.998808   -0.795204    0.000101
     18          6           0        3.191842    2.318435   -0.000051
     19          1           0       -3.558125   -2.752257   -0.000055
     20          1           0       -5.887044   -1.865635   -0.000013
     21          1           0       -6.265322    0.602861    0.000107
     22          1           0       -4.309343    2.146527    0.000166
     23          1           0        1.289226   -2.001734   -0.000151
     24          1           0        0.527582    2.883992   -0.000154
     25          1           0        3.832704    2.178847   -0.876958
     26          1           0        3.829412    2.182417    0.879886
     27          1           0        2.826265    3.347238   -0.002716
 ---------------------------------------------------------------------

 SCF Done:  E(UB3LYP) =  -3301.96631576     A.U. after   19 cycles

 The electronic state is 2-A.
 Alpha  occ. eigenvalues -- -482.83002 -62.48286 -56.30307 -56.29945 -56.29926
 Alpha  occ. eigenvalues --  -19.07863 -19.07783 -10.23034 -10.22709 -10.22600
 Alpha  occ. eigenvalues --  -10.19557 -10.18172 -10.17830 -10.17635 -10.17485
 Alpha  occ. eigenvalues --  -10.17474 -10.17440 -10.17419 -10.17372 -10.17119
 Alpha  occ. eigenvalues --  -10.17104 -10.16870  -8.69248  -6.52337  -6.51135
 Alpha  occ. eigenvalues --   -6.51087  -2.63437  -2.63101  -2.63067  -2.62110
 Alpha  occ. eigenvalues --   -2.62109  -1.00632  -1.00349  -0.87779  -0.85742
 Alpha  occ. eigenvalues --   -0.81238  -0.78673  -0.76348  -0.75210  -0.73466
 Alpha  occ. eigenvalues --   -0.70044  -0.66197  -0.63256  -0.60839  -0.59490
 Alpha  occ. eigenvalues --   -0.55948  -0.52605  -0.52256  -0.48169  -0.46880
 Alpha  occ. eigenvalues --   -0.45423  -0.44684  -0.43283  -0.43202  -0.42481
 Alpha  occ. eigenvalues --   -0.41801  -0.41799  -0.41480  -0.40270  -0.38740
 Alpha  occ. eigenvalues --   -0.38339  -0.37383  -0.36957  -0.35308  -0.34754
 Alpha  occ. eigenvalues --   -0.34739  -0.33664  -0.31078  -0.29439  -0.26632
 Alpha  occ. eigenvalues --   -0.25957  -0.25682  -0.24938  -0.24452  -0.23960
 Alpha  occ. eigenvalues --   -0.14381
 Alpha virt. eigenvalues --   -0.05755  -0.02495  -0.01813  -0.00823  -0.00423
 Alpha virt. eigenvalues --    0.00367   0.01239   0.02019   0.02436   0.03549
 Alpha virt. eigenvalues --    0.03909   0.03979   0.04202   0.04612   0.04876

  Beta  occ. eigenvalues -- -482.83001 -62.48285 -56.30307 -56.29942 -56.29925
  Beta  occ. eigenvalues --  -19.07316 -19.07228 -10.22987 -10.22535 -10.22424
  Beta  occ. eigenvalues --  -10.19499 -10.18172 -10.17749 -10.17551 -10.17468
  Beta  occ. eigenvalues --  -10.17411 -10.17374 -10.17366 -10.17326 -10.17116
  Beta  occ. eigenvalues --  -10.17099 -10.16874  -8.69247  -6.52338  -6.51130
  Beta  occ. eigenvalues --   -6.51086  -2.63437  -2.63098  -2.63067  -2.62108
  Beta  occ. eigenvalues --   -2.62107  -0.99675  -0.99363  -0.87608  -0.85558
  Beta  occ. eigenvalues --   -0.81012  -0.78496  -0.76129  -0.74998  -0.73291
  Beta  occ. eigenvalues --   -0.69852  -0.65528  -0.63131  -0.60579  -0.59426
  Beta  occ. eigenvalues --   -0.55695  -0.52357  -0.52114  -0.48032  -0.46626
  Beta  occ. eigenvalues --   -0.45266  -0.44614  -0.43133  -0.42846  -0.42443
  Beta  occ. eigenvalues --   -0.41633  -0.40896  -0.40789  -0.40038  -0.38691
  Beta  occ. eigenvalues --   -0.37282  -0.36747  -0.35939  -0.35241  -0.34646
  Beta  occ. eigenvalues --   -0.33873  -0.33514  -0.30406  -0.29428  -0.25617
  Beta  occ. eigenvalues --   -0.24819  -0.24719  -0.24431  -0.23903  -0.23452
  Beta virt. eigenvalues --   -0.08507  -0.04839  -0.01764  -0.01462  -0.00581
  Beta virt. eigenvalues --   -0.00407   0.00369   0.01249   0.02030   0.02439
  Beta virt. eigenvalues --    0.03624   0.03924   0.03982   0.04623   0.04630

 Mulliken charges and spin densities:
               1          2
     1  C    0.124540   0.027961
     2  C   -0.509162   0.036976
     3  C   -0.485875   0.035321
     4  C    0.108233   0.028551
     5  C    0.301551   0.030286
     6  C    0.027579   0.027023
     7  C   -0.811078   0.095589
     8  C    0.284109   0.044117
     9  C    0.214264   0.060245
    10  C   -0.542542   0.101274
    11  C   -0.051280   0.019453
    12  C   -0.341907   0.032110
    13  C    0.546180   0.044196
    14  C   -0.112191   0.017519
    15  O   -0.446796   0.202720
    16  O   -0.450575   0.206678
    17  Br  -0.228381   0.001182
    18  C   -0.195949  -0.003893
    19  H    0.166304  -0.001398
    20  H    0.182596  -0.003053
    21  H    0.184493  -0.002962
    22  H    0.162351  -0.001542
    23  H    0.218850  -0.001561
    24  H    0.133613  -0.001626
    25  H    0.173784   0.002345
    26  H    0.174354   0.002360
    27  H    0.172937   0.000128
 Sum of Mulliken charges =  -1.00000   1.00000

 Dipole moment (field-independent basis, Debye):
    X=              4.9975    Y=              0.9351    Z=              0.0008  Tot=              5.0843
 Quadrupole moment (field-independent basis, Debye-Ang):
   XX=           -133.4684   YY=           -150.1072   ZZ=           -123.6255
   XY=             10.7513   XZ=              0.0003   YZ=             -0.0001

 Normal termination of Gaussian 16 at Sun Jan 14 01:12:45 2024.
