 Gaussian 16, Revision A.03,
 Gaussian 16:  ES64L-G16RevA.03 25-Dec-2016

 --------------------------------------
 #P UB3LYP/6-311++G(d,p) nosym opt freq
 --------------------------------------

 -------
 Radical
 -------
 Symbolic Z-matrix:
 Charge = -1 Multiplicity = 2

 SCF Done:  E(UB3LYP) =  -3301.89502097     A.U. after   21 cycles
 Optimization completed.
    -- Stationary point found.
 Normal termination of Gaussian 16 at Wed Dec 27 19:54:00 2023.

 ----------------------------------------------------------------------
 #P Geom=AllCheck Guess=TCheck SCRF=Check GenChk UB3LYP/6-311++G(d,p) F
 req
 ----------------------------------------------------------------------

 Structure from the checkpoint file:  "120-rad.chk"
 -------
 Radical
 -------
 Charge = -1 Multiplicity = 2

                          Input orientation:
 ---------------------------------------------------------------------
 Center     Atomic      Atomic             Coordinates (Angstroms)
 Number     Number       Type             X           Y           Z
 ---------------------------------------------------------------------
      1          6           0       -3.366791    3.684427    0.036583
      2          6           0       -4.575281    3.017641    0.057741
      3          6           0       -4.599909    1.605652    0.081727
      4          6           0       -2.142127    2.980891    0.038384
      5          6           0       -2.166706    1.555633    0.062614
      6          6           0       -3.415732    0.896345    0.083967
      7          6           0       -0.886769    3.735634    0.015354
      8          6           0        0.337119    2.933695    0.018910
      9          6           0        0.314535    1.511048    0.043085
     10          6           0       -0.938607    0.757205    0.065994
     11          6           0        1.585923    3.590867   -0.002355
     12          6           0        2.750192    2.862483    0.000451
     13          6           0        2.772908    1.444381    0.024229
     14          6           0        1.540081    0.813409    0.044914
     15          8           0       -0.860365    4.990330   -0.005908
     16          8           0       -0.959105   -0.498866    0.087484
     17         35           0        4.433374    3.840628   -0.030177
     18          6           0        4.051428    0.647387    0.027047
     19          1           0       -3.317534    4.767131    0.017935
     20          1           0       -5.506382    3.576560    0.055965
     21          1           0       -5.550078    1.079990    0.098373
     22          1           0       -3.404762   -0.187434    0.102117
     23          1           0        1.586521    4.673026   -0.020623
     24          1           0        1.487212   -0.269994    0.063687
     25          1           0        4.674944    0.886380    0.894955
     26          1           0        4.657747    0.852732   -0.861490
     27          1           0        3.827204   -0.420931    0.049597
 ---------------------------------------------------------------------

 SCF Done:  E(UB3LYP) =  -3301.89502097     A.U. after    1 cycles

 Alpha  occ. eigenvalues -- -482.72686 -62.37976 -56.19987 -56.19638 -56.19623
 Alpha  occ. eigenvalues --  -18.95354 -18.95295 -10.11961 -10.10395 -10.10300
 Alpha  occ. eigenvalues --  -10.08555 -10.07633 -10.06768 -10.06422 -10.06374
 Alpha  occ. eigenvalues --  -10.06229 -10.06072 -10.05866 -10.05738 -10.05726
 Alpha  occ. eigenvalues --  -10.05682 -10.05643  -8.58942  -6.42005  -6.40837
 Alpha  occ. eigenvalues --   -6.40804  -2.53112  -2.52780  -2.52757  -2.51828
 Alpha  occ. eigenvalues --   -2.51827  -0.88068  -0.87773  -0.76545  -0.74223
 Alpha  occ. eigenvalues --   -0.70134  -0.67897  -0.65120  -0.63670  -0.62282
 Alpha  occ. eigenvalues --   -0.59398  -0.54600  -0.52085  -0.49544  -0.48184
 Alpha  occ. eigenvalues --   -0.44308  -0.41376  -0.40837  -0.36990  -0.35325
 Alpha  occ. eigenvalues --   -0.34326  -0.33610  -0.33147  -0.31935  -0.31039
 Alpha  occ. eigenvalues --   -0.30662  -0.30185  -0.28903  -0.28807  -0.28343
 Alpha  occ. eigenvalues --   -0.26610  -0.25996  -0.25632  -0.24079  -0.23511
 Alpha  occ. eigenvalues --   -0.23312  -0.22026  -0.20018  -0.19193  -0.14828
 Alpha  occ. eigenvalues --   -0.14488  -0.14034  -0.13210  -0.12322  -0.11458
 Alpha  occ. eigenvalues --   -0.02241
 Alpha virt. eigenvalues --    0.05891   0.07142   0.07977   0.08355   0.08737
 Alpha virt. eigenvalues --    0.09950   0.10438   0.10590   0.11190   0.11521
 Alpha virt. eigenvalues --    0.12149   0.12708   0.13600   0.13956   0.14583

  Beta  occ. eigenvalues -- -482.72685 -62.37976 -56.19987 -56.19636 -56.19623
  Beta  occ. eigenvalues --  -18.94757 -18.94691 -10.11904 -10.10266 -10.10167
  Beta  occ. eigenvalues --  -10.08493 -10.07639 -10.06783 -10.06374 -10.06325
  Beta  occ. eigenvalues --  -10.06242 -10.05972 -10.05761 -10.05741 -10.05729
  Beta  occ. eigenvalues --  -10.05605 -10.05560  -8.58941  -6.42006  -6.40833
  Beta  occ. eigenvalues --   -6.40803  -2.53112  -2.52778  -2.52758  -2.51826
  Beta  occ. eigenvalues --   -2.51825  -0.87050  -0.86720  -0.76387  -0.74035
  Beta  occ. eigenvalues --   -0.69931  -0.67721  -0.64884  -0.63485  -0.62110
  Beta  occ. eigenvalues --   -0.59226  -0.53914  -0.51972  -0.49278  -0.48124
  Beta  occ. eigenvalues --   -0.44083  -0.41138  -0.40707  -0.36906  -0.35039
  Beta  occ. eigenvalues --   -0.34176  -0.33540  -0.33009  -0.31872  -0.31010
  Beta  occ. eigenvalues --   -0.30560  -0.29037  -0.28690  -0.28447  -0.27984
  Beta  occ. eigenvalues --   -0.26430  -0.25619  -0.24015  -0.23415  -0.23388
  Beta  occ. eigenvalues --   -0.22541  -0.21824  -0.19316  -0.19183  -0.14213
  Beta  occ. eigenvalues --   -0.13121  -0.12783  -0.12392  -0.11764  -0.10898
  Beta virt. eigenvalues --    0.03710   0.06683   0.07162   0.07970   0.08374
  Beta virt. eigenvalues --    0.09800   0.09943   0.10595   0.10612   0.11194
  Beta virt. eigenvalues --    0.11575   0.12142   0.12708   0.13610   0.14060

 Mulliken charges and spin densities:
               1          2
     1  C    0.113259   0.017864
     2  C   -0.446159   0.039916
     3  C   -0.421099   0.037485
     4  C    0.179827   0.040319
     5  C    0.375770   0.041329
     6  C    0.004687   0.017055
     7  C   -1.000396   0.062467
     8  C    0.329228   0.061798
     9  C    0.242240   0.077119
    10  C   -0.696234   0.069775
    11  C   -0.051621   0.006653
    12  C   -0.323699   0.039042
    13  C    0.642841   0.045845
    14  C   -0.114165   0.004531
    15  O   -0.354086   0.222610
    16  O   -0.359799   0.225842
    17  Br  -0.297882   0.000518
    18  C   -0.194947  -0.004235
    19  H    0.159598  -0.001121
    20  H    0.125866  -0.003332
    21  H    0.127601  -0.003215
    22  H    0.154651  -0.001281
    23  H    0.223936  -0.001117
    24  H    0.122564  -0.001209
    25  H    0.152447   0.002602
    26  H    0.152827   0.002621
    27  H    0.152746   0.000120
 Sum of Mulliken charges =  -1.00000   1.00000

 Dipole moment (field-independent basis, Debye):
    X=              1.6665    Y=            -12.0905    Z=             -0.1518  Tot=             12.2057
 Quadrupole moment (field-independent basis, Debye-Ang):
   XX=           -146.2650   YY=           -181.0819   ZZ=           -123.8865
   XY=             -3.1840   XZ=              0.3561   YZ=              0.1302

  Exact polarizability: 400.999   8.223 241.176  -2.524  -2.259 111.127
 Approx polarizability: 556.509   9.645 456.463  -3.265  -4.755 179.301

                      1                      2                      3
                      A                      A                      A
 Frequencies --     40.4511                61.5400               124.6695
 Red. masses --      8.4936                 4.9264                10.8547
 Frc consts  --      0.0082                 0.0110                 0.0994
 IR Inten    --      2.9931                 2.1982                 0.8838

                      4                      5                      6
                      A                      A                      A
 Frequencies --    126.3137               132.9267               163.8287
 Red. masses --      6.4525                 4.4067                 1.1007
 Frc consts  --      0.0607                 0.0459                 0.0174
 IR Inten    --      2.5153                 0.3783                 0.2876

                      7                      8                      9
                      A                      A                      A
 Frequencies --    190.8078               214.1141               219.3635
 Red. masses --      6.2207                12.6212                 3.8470
 Frc consts  --      0.1334                 0.3409                 0.1091
 IR Inten    --      1.1291                 1.2022                 0.1637

                     10                     11                     12
                      A                      A                      A
 Frequencies --    229.7663               280.6666               314.3040
 Red. masses --      3.9426                 6.0212                 5.7830
 Frc consts  --      0.1226                 0.2795                 0.3366
 IR Inten    --      2.9778                 1.1598                 3.5074

                     13                     14                     15
                      A                      A                      A
 Frequencies --    344.6170               378.4730               425.1369
 Red. masses --      6.5515                10.7812                 3.4737
 Frc consts  --      0.4584                 0.9099                 0.3699
 IR Inten    --      2.3333                 4.7364                 4.3440

                     16                     17                     18
                      A                      A                      A
 Frequencies --    436.0364               447.7198               462.1820
 Red. masses --      5.9108                 4.7400                 6.5726
 Frc consts  --      0.6621                 0.5598                 0.8272
 IR Inten    --      0.3147                 8.2509                 2.8359

                     19                     20                     21
                      A                      A                      A
 Frequencies --    466.0419               492.5117               544.4109
 Red. masses --      3.2418                10.8625                 5.4113
 Frc consts  --      0.4148                 1.5524                 0.9449
 IR Inten    --      0.2115                 1.2086                 0.0610

                     22                     23                     24
                      A                      A                      A
 Frequencies --    600.0935               640.1187               653.7658
 Red. masses --      6.4396                 4.9018                 6.6452
 Frc consts  --      1.3663                 1.1834                 1.6734
 IR Inten    --     26.0335                 0.0158                24.7588

                     25                     26                     27
                      A                      A                      A
 Frequencies --    676.1459               702.8669               706.2874
 Red. masses --      6.4081                 6.7148                 2.3339
 Frc consts  --      1.7261                 1.9545                 0.6859
 IR Inten    --      9.4166                 6.1006                61.8629

                     28                     29                     30
                      A                      A                      A
 Frequencies --    721.2871               746.6232               781.2190
 Red. masses --      4.6928                 6.2209                 1.8391
 Frc consts  --      1.4384                 2.0432                 0.6613
 IR Inten    --      0.3450                 6.3302                19.2701

                     31                     32                     33
                      A                      A                      A
 Frequencies --    807.3386               862.9946               871.8247
 Red. masses --      3.8411                 6.2940                 1.5268
 Frc consts  --      1.4751                 2.7618                 0.6837
 IR Inten    --      0.0097                 5.8866                 0.0006

                     34                     35                     36
                      A                      A                      A
 Frequencies --    919.0735               931.4500               948.4960
 Red. masses --      1.3819                 1.3923                 7.0701
 Frc consts  --      0.6877                 0.7117                 3.7476
 IR Inten    --      0.0014                17.0223                 7.7376

                     37                     38                     39
                      A                      A                      A
 Frequencies --    979.4144               983.9164               985.2402
 Red. masses --      2.8742                 1.3662                 1.2677
 Frc consts  --      1.6244                 0.7793                 0.7250
 IR Inten    --     61.5655                 3.1983                 0.0016

                     40                     41                     42
                      A                      A                      A
 Frequencies --   1026.6509              1039.4006              1058.5510
 Red. masses --      1.7491                 1.9019                 1.4688
 Frc consts  --      1.0862                 1.2106                 0.9697
 IR Inten    --      6.5506                23.4227                 2.1808

                     43                     44                     45
                      A                      A                      A
 Frequencies --   1108.9734              1144.7470              1147.8057
 Red. masses --      2.3005                 2.0374                 1.6563
 Frc consts  --      1.6669                 1.5731                 1.2857
 IR Inten    --     19.5065                21.7279                 7.9637

                     46                     47                     48
                      A                      A                      A
 Frequencies --   1168.6866              1215.3004              1222.6802
 Red. masses --      2.5771                 2.6363                 1.7603
 Frc consts  --      2.0738                 2.2941                 1.5505
 IR Inten    --      5.9529                22.2985                 0.0165

                     49                     50                     51
                      A                      A                      A
 Frequencies --   1237.0005              1248.2085              1306.0425
 Red. masses --      4.8553                 1.4282                 2.7566
 Frc consts  --      4.3773                 1.3111                 2.7704
 IR Inten    --     22.0397                33.6575                56.3277

                     52                     53                     54
                      A                      A                      A
 Frequencies --   1356.1719              1358.5986              1397.4278
 Red. masses --      8.2930                10.8077                 2.3740
 Frc consts  --      8.9865                11.7534                 2.7314
 IR Inten    --      9.4481                12.3308               168.9075

                     55                     56                     57
                      A                      A                      A
 Frequencies --   1414.9645              1449.8773              1471.1144
 Red. masses --      1.4750                 2.8848                 2.6039
 Frc consts  --      1.7400                 3.5730                 3.3202
 IR Inten    --     30.9130               149.1821                84.4758

                     58                     59                     60
                      A                      A                      A
 Frequencies --   1479.3781              1482.0440              1493.4038
 Red. masses --      1.0445                 3.3773                 1.3888
 Frc consts  --      1.3469                 4.3706                 1.8249
 IR Inten    --      7.3580                 6.8625                 8.9875

                     61                     62                     63
                      A                      A                      A
 Frequencies --   1519.8530              1523.9530              1550.2900
 Red. masses --      4.7292                 5.3863                 6.1346
 Frc consts  --      6.4364                 7.3703                 8.6868
 IR Inten    --    577.6619                37.0024                50.0631

                     64                     65                     66
                      A                      A                      A
 Frequencies --   1609.7941              1616.7698              1629.9063
 Red. masses --      6.9689                 8.4543                 6.5001
 Frc consts  --     10.6403                13.0204                10.1741
 IR Inten    --     16.3434                 0.2119                15.2208

                     67                     68                     69
                      A                      A                      A
 Frequencies --   3013.1889              3055.5244              3096.6803
 Red. masses --      1.0370                 1.0998                 1.0996
 Frc consts  --      5.5472                 6.0495                 6.2127
 IR Inten    --     78.9019                22.5893                23.8455

                     70                     71                     72
                      A                      A                      A
 Frequencies --   3135.5457              3154.4019              3170.9198
 Red. masses --      1.0847                 1.0911                 1.0890
 Frc consts  --      6.2834                 6.3964                 6.4516
 IR Inten    --     17.3354                50.9928                10.1658

                     73                     74                     75
                      A                      A                      A
 Frequencies --   3182.3580              3184.8549              3201.7793
 Red. masses --      1.0914                 1.0930                 1.0905
 Frc consts  --      6.5122                 6.5323                 6.5866
 IR Inten    --      9.5548                34.2787                 5.2357

 - Thermochemistry -
 -------------------
 Temperature   298.150 Kelvin.  Pressure   1.00000 Atm.
 Atom     1 has atomic number  6 and mass  12.00000

 Molecular mass:   299.97859 amu.
 Principal axes and moments of inertia in atomic units:
                           1         2         3
     Eigenvalues --  2193.82054********************
           X            0.98729  -0.15873   0.00821
           Y            0.15858   0.98720   0.01689
           Z           -0.01078  -0.01537   0.99982
 This molecule is an asymmetric top.
 Rotational symmetry number  1.
 Warning -- assumption of classical behavior for rotation
           may cause significant error
 Rotational temperatures (Kelvin)      0.03948     0.00812     0.00674
 Rotational constants (GHZ):           0.82265     0.16916     0.14043
 Zero-point vibrational energy     508932.6 (Joules/Mol)
                                  121.63781 (Kcal/Mol)
 Warning -- explicit consideration of  22 degrees of freedom as
           vibrations may cause significant error
 Vibrational temperatures:     58.20    88.54   179.37   181.74   191.25
          (Kelvin)            235.71   274.53   308.06   315.62   330.58
                              403.82   452.21   495.83   544.54   611.68
                              627.36   644.17   664.98   670.53   708.61
                              783.29   863.40   920.99   940.62   972.82
                             1011.27  1016.19  1037.77  1074.22  1124.00
                             1161.58  1241.66  1254.36  1322.34  1340.15
                             1364.67  1409.16  1415.64  1417.54  1477.12
                             1495.47  1523.02  1595.57  1647.04  1651.44
                             1681.48  1748.55  1759.16  1779.77  1795.89
                             1879.10  1951.23  1954.72  2010.59  2035.82
                             2086.05  2116.61  2128.50  2132.33  2148.67
                             2186.73  2192.63  2230.52  2316.13  2326.17
                             2345.07  4335.31  4396.22  4455.43  4511.35
                             4538.48  4562.25  4578.70  4582.30  4606.65

 Zero-point correction=                           0.193842 (Hartree/Particle)
 Thermal correction to Energy=                    0.208318
 Thermal correction to Enthalpy=                  0.209263
 Thermal correction to Gibbs Free Energy=         0.150891
 Sum of electronic and zero-point Energies=          -3301.701179
 Sum of electronic and thermal Energies=             -3301.686703
 Sum of electronic and thermal Enthalpies=           -3301.685758
 Sum of electronic and thermal Free Energies=        -3301.744130

                     E (Thermal)             CV                S
                      KCal/Mol        Cal/Mol-Kelvin    Cal/Mol-Kelvin
 Total                  130.722             56.571            122.853
 Electronic               0.000              0.000              1.377
 Translational            0.889              2.981             42.993
 Rotational               0.889              2.981             34.064
 Vibrational            128.944             50.610             44.419
 Vibration     1          0.594              1.981              5.237
 Vibration     2          0.597              1.973              4.407
 Vibration     3          0.610              1.928              3.027
 Vibration     4          0.611              1.927              3.001
 Vibration     5          0.613              1.920              2.903
 Vibration     6          0.623              1.887              2.505
 Vibration     7          0.634              1.853              2.220
 Vibration     8          0.644              1.819              2.008
 Vibration     9          0.647              1.812              1.964
 Vibration    10          0.652              1.796              1.881
 Vibration    11          0.680              1.709              1.530
 Vibration    12          0.702              1.646              1.340
 Vibration    13          0.723              1.586              1.191
 Vibration    14          0.749              1.516              1.045
 Vibration    15          0.787              1.416              0.875
 Vibration    16          0.796              1.392              0.839
 Vibration    17          0.807              1.366              0.803
 Vibration    18          0.820              1.334              0.760
 Vibration    19          0.823              1.325              0.749
 Vibration    20          0.848              1.267              0.677
 Vibration    21          0.900              1.152              0.556
 Vibration    22          0.958              1.032              0.449

                           ! Non-Optimized Parameters !
 Normal termination of Gaussian 16 at Wed Dec 27 21:06:47 2023.
