 Q-Chem 5.4, Q-Chem, Inc., Pleasanton, CA (2021)
 Q-Chem 5.4.0 for Intel X86 EM64T Linux

User input:
--------------------------------------------------------------
$molecule
-1 2
C                 -0.9955690000      3.9305460000      0.0208170000
C                 -2.1702460000      3.2147930000      0.1630670000
C                 -2.1456700000      1.8048850000      0.1481470000
C                  0.2421410000      3.2719470000     -0.1385120000
C                  0.2650240000      1.8492300000     -0.1496650000
C                 -0.9418750000      1.1393540000     -0.0079600000
C                  1.4654950000      4.0454350000     -0.2973060000
C                  2.7146590000      3.3079850000     -0.4675020000
C                  2.7278540000      1.9168750000     -0.4067230000
C                  1.5250490000      1.1269560000     -0.3029990000
O                  1.4827670000      5.3103140000     -0.3037600000
O                  1.5836670000     -0.1387620000     -0.3646230000
N                  3.8192900000      4.0845540000     -0.7367660000
H                 -0.9900030000      5.0144650000      0.0253140000
H                 -3.1138620000      3.7386470000      0.2853860000
H                 -3.0687560000      1.2438790000      0.2593140000
H                 -0.8919080000      0.0565720000     -0.0234750000
H                  3.6193240000      5.0635860000     -0.5626250000
H                  4.7038150000      3.7247310000     -0.3872240000
N                  3.8623110000      1.0805080000     -0.5905250000
C                  5.1611860000      1.2099420000     -0.2385360000
C                  6.0127840000     -0.0266290000     -0.4999260000
H                  3.5197820000      0.1340820000     -0.7617370000
H                  5.4363990000     -0.8930740000     -0.8303070000
H                  6.5507760000     -0.2770630000      0.4171520000
H                  6.7580580000      0.2146400000     -1.2628360000
O                  5.6849890000      2.2208430000      0.2413380000
$end
$rem
MAX_SCF_CYCLES=200
BASIS  =  6-311++G(d,p)
GUI  =  2
JOB_TYPE  =  SP
METHOD  =  B3LYP
SOLVENT_METHOD = PCM
$end
$pcm
theory = CPCM
$end
$solvent
dielectric 37.219
opticaldielectric 1.43
$end

--------------------------------------------------------------

             Standard Nuclear Orientation (Angstroms)
    I     Atom           X                Y                Z
 ----------------------------------------------------------------
    1      C      -0.9955690000     3.9305460000     0.0208170000
    2      C      -2.1702460000     3.2147930000     0.1630670000
    3      C      -2.1456700000     1.8048850000     0.1481470000
    4      C       0.2421410000     3.2719470000    -0.1385120000
    5      C       0.2650240000     1.8492300000    -0.1496650000
    6      C      -0.9418750000     1.1393540000    -0.0079600000
    7      C       1.4654950000     4.0454350000    -0.2973060000
    8      C       2.7146590000     3.3079850000    -0.4675020000
    9      C       2.7278540000     1.9168750000    -0.4067230000
   10      C       1.5250490000     1.1269560000    -0.3029990000
   11      O       1.4827670000     5.3103140000    -0.3037600000
   12      O       1.5836670000    -0.1387620000    -0.3646230000
   13      N       3.8192900000     4.0845540000    -0.7367660000
   14      H      -0.9900030000     5.0144650000     0.0253140000
   15      H      -3.1138620000     3.7386470000     0.2853860000
   16      H      -3.0687560000     1.2438790000     0.2593140000
   17      H      -0.8919080000     0.0565720000    -0.0234750000
   18      H       3.6193240000     5.0635860000    -0.5626250000
   19      H       4.7038150000     3.7247310000    -0.3872240000
   20      N       3.8623110000     1.0805080000    -0.5905250000
   21      C       5.1611860000     1.2099420000    -0.2385360000
   22      C       6.0127840000    -0.0266290000    -0.4999260000
   23      H       3.5197820000     0.1340820000    -0.7617370000
   24      H       5.4363990000    -0.8930740000    -0.8303070000
   25      H       6.5507760000    -0.2770630000     0.4171520000
   26      H       6.7580580000     0.2146400000    -1.2628360000
   27      O       5.6849890000     2.2208430000     0.2413380000
 ----------------------------------------------------------------

    8    -798.8926719715      7.67e-06  Convergence criterion met
 Total energy in the final basis set =     -798.8926719715

                    Orbital Energies (a.u.)
 --------------------------------------------------------------

 Alpha MOs
 -- Occupied --
-19.0992 -19.0821 -19.0802 -14.3471 -14.3056 -10.2827 -10.2282 -10.2242
-10.2111 -10.2012 -10.1742 -10.1737 -10.1716 -10.1709 -10.1701 -10.1695
-10.1687  -1.0474  -1.0101  -1.0066  -0.9360  -0.9042  -0.8581  -0.7935
 -0.7519  -0.7505  -0.7179  -0.6768  -0.6335  -0.6178  -0.5837  -0.5653
 -0.5370  -0.5158  -0.5040  -0.4874  -0.4759  -0.4561  -0.4510  -0.4411
 -0.4308  -0.4243  -0.4192  -0.4172  -0.4142  -0.3988  -0.3887  -0.3849
 -0.3767  -0.3587  -0.3542  -0.3387  -0.3272  -0.3007  -0.2738  -0.2648
 -0.2585  -0.2578  -0.2481  -0.2077  -0.1496

 Beta MOs
 -- Occupied --
-19.0992 -19.0761 -19.0758 -14.3471 -14.3046 -10.2827 -10.2263 -10.2215
-10.2098 -10.2011 -10.1736 -10.1729 -10.1713 -10.1705 -10.1699 -10.1692
-10.1687  -1.0472  -1.0021  -0.9966  -0.9347  -0.9015  -0.8559  -0.7898
 -0.7499  -0.7490  -0.7165  -0.6690  -0.6314  -0.6158  -0.5816  -0.5631
 -0.5350  -0.5149  -0.5021  -0.4867  -0.4727  -0.4549  -0.4504  -0.4389
 -0.4257  -0.4226  -0.4166  -0.4115  -0.4088  -0.3973  -0.3845  -0.3771
 -0.3638  -0.3549  -0.3504  -0.3375  -0.3127  -0.2960  -0.2731  -0.2537
 -0.2506  -0.2487  -0.2431  -0.2000

          Ground-State Mulliken Net Atomic Charges

     Atom                 Charge (a.u.)    Spin (a.u.)
  --------------------------------------------------------
      1 C                     0.127177       0.060305
      2 C                    -0.361633       0.018111
      3 C                    -0.431339       0.060539
      4 C                     0.402420       0.009863
      5 C                    -0.039153       0.054976
      6 C                     0.078784       0.027042
      7 C                    -0.638146       0.174251
      8 C                     0.364308       0.056573
      9 C                     0.449836      -0.004532
     10 C                    -0.833126       0.110487
     11 O                    -0.509347       0.230682
     12 O                    -0.501488       0.166709
     13 N                    -0.466629       0.051070
     14 H                     0.172798      -0.003378
     15 H                     0.194354      -0.001774
     16 H                     0.197101      -0.004362
     17 H                     0.172525      -0.000698
     18 H                     0.303755      -0.002659
     19 H                     0.300758      -0.000055
     20 N                    -0.053240      -0.003525
     21 C                     0.283518      -0.001348
     22 C                    -0.617360       0.000884
     23 H                     0.364265      -0.001879
     24 H                     0.149872       0.000216
     25 H                     0.185546       0.000129
     26 H                     0.191932       0.000243
     27 O                    -0.487487       0.002128
  --------------------------------------------------------
  Sum of atomic charges =    -1.000000

                    Cartesian Multipole Moments
 -----------------------------------------------------------------
    Charge (ESU x 10^10)
                -4.8032
    Dipole Moment (Debye)
         X      -9.3218      Y     -15.0264      Z       0.8132
       Tot      17.7017
    Quadrupole Moments (Debye-Ang)
        XX    -128.1371     XY     -36.5171     YY    -170.5142
        XZ      -3.3168     YZ       4.9230     ZZ    -107.0133

 Total job time:  82.28s(wall), 351.92s(cpu)
        *  Thank you very much for using Q-Chem.  Have a nice day.  *
