 Q-Chem 5.4, Q-Chem, Inc., Pleasanton, CA (2021)
 Q-Chem 5.4.0 for Intel X86 EM64T Linux

User input:
--------------------------------------------------------------
$molecule
-2 1
C                  6.6726410000      0.5768660000      0.7367060000
C                  5.1915730000      0.4567720000      0.4604320000
C                  4.4640600000      1.4855120000     -0.1580840000
C                  3.1126930000      1.3638780000     -0.4444170000
C                  2.3791850000      0.1884310000     -0.1245230000
N                  1.0452250000      0.1749120000     -0.4171830000
C                  0.0941490000     -0.8534830000     -0.3393050000
C                  0.4207770000     -2.1914960000     -0.4439960000
C                 -0.5816550000     -3.1836500000     -0.3630660000
C                 -1.9073720000     -2.8471310000     -0.1692810000
O                 -2.8304560000     -3.8751390000     -0.0626540000
C                 -2.3316140000     -1.4866860000     -0.0935750000
C                 -3.7405030000     -1.1484360000      0.0845240000
O                 -4.6702420000     -1.9981290000      0.2165250000
C                 -4.0424280000      0.2821180000      0.0983020000
C                 -5.3832140000      0.6944260000      0.2650740000
C                 -5.7429600000      2.0285570000      0.2770170000
C                 -4.7406470000      3.0209100000      0.1156910000
C                 -3.4244050000      2.6486740000     -0.0515160000
C                 -3.0303220000      1.2821930000     -0.0633610000
C                 -1.6452600000      0.9450850000     -0.2390970000
O                 -0.7683530000      1.9055530000     -0.4238540000
C                 -1.3003630000     -0.4488310000     -0.2152400000
C                  3.1167220000     -0.8471330000      0.5081150000
C                  4.4731610000     -0.6999940000      0.7849890000
H                  7.2610740000     -0.1879640000      0.2076030000
H                  7.0598280000      1.5498950000      0.4166770000
H                  6.9086350000      0.4709170000      1.8024470000
H                  4.9740880000      2.4089810000     -0.4242220000
H                  2.5810280000      2.1826910000     -0.9181890000
H                  0.5205340000      1.1026170000     -0.4971190000
H                  1.4421150000     -2.4929440000     -0.6310310000
H                 -0.3038290000     -4.2344830000     -0.4444790000
H                 -2.3186800000     -4.6882500000     -0.1376900000
H                 -6.1198360000     -0.0937360000      0.3820960000
H                 -6.7835070000      2.3177150000      0.4078690000
H                 -5.0123500000      4.0748190000      0.1244210000
H                 -2.6383850000      3.3845280000     -0.1792330000
H                  2.6102710000     -1.7482510000      0.8222940000
H                  4.9886200000     -1.5203140000      1.2816030000
$end

$rem
BASIS  =  6-311++G(d,p)
GUI  =  2
JOB_TYPE  =  SP
METHOD  =  B3LYP
SCF_CONVERGENCE  = 8
SOLVENT_METHOD = sm12
$end

$smx
solvent dimethylformamide
charges CM5
$end

--------------------------------------------------------------

             Standard Nuclear Orientation (Angstroms)
    I     Atom           X                Y                Z
 ----------------------------------------------------------------
    1      C       6.6726410000     0.5768660000     0.7367060000
    2      C       5.1915730000     0.4567720000     0.4604320000
    3      C       4.4640600000     1.4855120000    -0.1580840000
    4      C       3.1126930000     1.3638780000    -0.4444170000
    5      C       2.3791850000     0.1884310000    -0.1245230000
    6      N       1.0452250000     0.1749120000    -0.4171830000
    7      C       0.0941490000    -0.8534830000    -0.3393050000
    8      C       0.4207770000    -2.1914960000    -0.4439960000
    9      C      -0.5816550000    -3.1836500000    -0.3630660000
   10      C      -1.9073720000    -2.8471310000    -0.1692810000
   11      O      -2.8304560000    -3.8751390000    -0.0626540000
   12      C      -2.3316140000    -1.4866860000    -0.0935750000
   13      C      -3.7405030000    -1.1484360000     0.0845240000
   14      O      -4.6702420000    -1.9981290000     0.2165250000
   15      C      -4.0424280000     0.2821180000     0.0983020000
   16      C      -5.3832140000     0.6944260000     0.2650740000
   17      C      -5.7429600000     2.0285570000     0.2770170000
   18      C      -4.7406470000     3.0209100000     0.1156910000
   19      C      -3.4244050000     2.6486740000    -0.0515160000
   20      C      -3.0303220000     1.2821930000    -0.0633610000
   21      C      -1.6452600000     0.9450850000    -0.2390970000
   22      O      -0.7683530000     1.9055530000    -0.4238540000
   23      C      -1.3003630000    -0.4488310000    -0.2152400000
   24      C       3.1167220000    -0.8471330000     0.5081150000
   25      C       4.4731610000    -0.6999940000     0.7849890000
   26      H       7.2610740000    -0.1879640000     0.2076030000
   27      H       7.0598280000     1.5498950000     0.4166770000
   28      H       6.9086350000     0.4709170000     1.8024470000
   29      H       4.9740880000     2.4089810000    -0.4242220000
   30      H       2.5810280000     2.1826910000    -0.9181890000
   31      H       0.5205340000     1.1026170000    -0.4971190000
   32      H       1.4421150000    -2.4929440000    -0.6310310000
   33      H      -0.3038290000    -4.2344830000    -0.4444790000
   34      H      -2.3186800000    -4.6882500000    -0.1376900000
   35      H      -6.1198360000    -0.0937360000     0.3820960000
   36      H      -6.7835070000     2.3177150000     0.4078690000
   37      H      -5.0123500000     4.0748190000     0.1244210000
   38      H      -2.6383850000     3.3845280000    -0.1792330000
   39      H       2.6102710000    -1.7482510000     0.8222940000
   40      H       4.9886200000    -1.5203140000     1.2816030000
 ----------------------------------------------------------------

   18   -1089.9715736402      6.00e-09  Convergence criterion met
 Total energy in the final basis set =    -1090.2494944903

                    Orbital Energies (a.u.)
 --------------------------------------------------------------

 Alpha MOs
 -- Occupied --
-19.1362 -19.0351 -19.0265 -14.3056 -10.2204 -10.2172 -10.2021 -10.1948
-10.1871 -10.1770 -10.1766 -10.1758 -10.1731 -10.1711 -10.1706 -10.1704
-10.1702 -10.1671 -10.1662 -10.1616 -10.1587 -10.1580 -10.1570 -10.1539
-10.1513  -1.0446  -0.9596  -0.9531  -0.9251  -0.8533  -0.8446  -0.8258
 -0.7708  -0.7662  -0.7497  -0.7416  -0.7272  -0.7213  -0.6767  -0.6528
 -0.6296  -0.6208  -0.6104  -0.5939  -0.5727  -0.5533  -0.5452  -0.5343
 -0.5047  -0.4984  -0.4723  -0.4695  -0.4598  -0.4522  -0.4483  -0.4369
 -0.4289  -0.4234  -0.4195  -0.4172  -0.4149  -0.4101  -0.3940  -0.3901
 -0.3837  -0.3790  -0.3745  -0.3694  -0.3668  -0.3577  -0.3528  -0.3493
 -0.3407  -0.3320  -0.3289  -0.3212  -0.3206  -0.2926  -0.2601  -0.2474
 -0.2382  -0.2353  -0.2329  -0.2135  -0.1975  -0.1787  -0.1153

          Ground-State Mulliken Net Atomic Charges

     Atom                 Charge (a.u.)
  ----------------------------------------
      1 C                     1.591186
      2 C                     2.166310
      3 C                     0.373832
      4 C                    -1.238256
      5 C                    -3.061243
      6 N                    -0.267738
      7 C                    -1.348345
      8 C                     0.707133
      9 C                     2.207225
     10 C                     0.226431
     11 O                    -0.067030
     12 C                    -1.019767
     13 C                    -2.890477
     14 O                    -0.286928
     15 C                    -1.365314
     16 C                    -0.063820
     17 C                     1.416337
     18 C                     1.497533
     19 C                    -0.314054
     20 C                    -1.590413
     21 C                    -2.171973
     22 O                    -0.299169
     23 C                    -0.367418
     24 C                    -1.205575
     25 C                     1.391219
     26 H                     0.247637
     27 H                     0.320889
     28 H                     0.215070
     29 H                     0.232959
     30 H                     0.244475
     31 H                     0.287925
     32 H                     0.236840
     33 H                     0.374180
     34 H                     0.386140
     35 H                     0.121115
     36 H                     0.365662
     37 H                     0.399578
     38 H                     0.135998
     39 H                     0.119114
     40 H                     0.292732
  ----------------------------------------
  Sum of atomic charges =    -2.000000

                    Cartesian Multipole Moments
 -----------------------------------------------------------------
    Charge (ESU x 10^10)
                -9.6064
    Dipole Moment (Debye)
         X      21.6055      Y       0.2968      Z       0.6970
       Tot      21.6188
    Quadrupole Moments (Debye-Ang)
        XX    -275.3644     XY     -12.3721     YY    -184.3437
        XZ       3.7762     YZ       0.5458     ZZ    -163.8422

 Total job time:  1942.33s(wall), 14862.55s(cpu)
        *  Thank you very much for using Q-Chem.  Have a nice day.  *
