 Gaussian 16, Revision A.03,
 Gaussian 16:  ES64L-G16RevA.03 25-Dec-2016

 --------------------------------------
 #P UB3LYP/6-311++G(d,p) nosym opt freq
 --------------------------------------

 -------
 Radical
 -------
 Symbolic Z-matrix:
 Charge = -1 Multiplicity = 2

 SCF Done:  E(UB3LYP) =  -804.758095845     A.U. after   24 cycles
 SCF Done:  E(UB3LYP) =  -804.768107947     A.U. after   19 cycles
 SCF Done:  E(UB3LYP) =  -804.769117429     A.U. after   17 cycles
 SCF Done:  E(UB3LYP) =  -804.768119396     A.U. after   17 cycles
 SCF Done:  E(UB3LYP) =  -804.769337634     A.U. after   15 cycles
 SCF Done:  E(UB3LYP) =  -804.769316160     A.U. after   16 cycles
 SCF Done:  E(UB3LYP) =  -804.769374131     A.U. after   15 cycles
 SCF Done:  E(UB3LYP) =  -804.769381315     A.U. after   15 cycles
 SCF Done:  E(UB3LYP) =  -804.769396097     A.U. after   14 cycles
 SCF Done:  E(UB3LYP) =  -804.769406437     A.U. after   14 cycles
 SCF Done:  E(UB3LYP) =  -804.769413994     A.U. after   15 cycles
 SCF Done:  E(UB3LYP) =  -804.769424600     A.U. after   16 cycles
 SCF Done:  E(UB3LYP) =  -804.769427807     A.U. after   15 cycles
 SCF Done:  E(UB3LYP) =  -804.769429368     A.U. after   15 cycles
 SCF Done:  E(UB3LYP) =  -804.769429663     A.U. after   12 cycles
 SCF Done:  E(UB3LYP) =  -804.769429893     A.U. after   13 cycles
 SCF Done:  E(UB3LYP) =  -804.769430182     A.U. after   13 cycles
 SCF Done:  E(UB3LYP) =  -804.769430369     A.U. after   13 cycles
 SCF Done:  E(UB3LYP) =  -804.769430384     A.U. after   10 cycles
 Optimization completed.
    -- Stationary point found.
 Normal termination of Gaussian 16 at Wed Dec 20 03:52:35 2023.

 ----------------------------------------------------------------------
 #P Geom=AllCheck Guess=TCheck SCRF=Check GenChk UB3LYP/6-311++G(d,p) F
 req
 ----------------------------------------------------------------------

 Structure from the checkpoint file:  "081-rad.chk"
 -------
 Radical
 -------
 Charge = -1 Multiplicity = 2

                          Input orientation:
 ---------------------------------------------------------------------
 Center     Atomic      Atomic             Coordinates (Angstroms)
 Number     Number       Type             X           Y           Z
 ---------------------------------------------------------------------
      1          6           0        1.385847    1.197566   -2.976724
      2          6           0        0.102059    1.573497   -3.532570
      3          6           0       -1.017555    0.824804   -3.327977
      4          6           0       -1.011136   -0.395985   -2.547252
      5          6           0        0.272285   -0.810481   -1.987607
      6          8           0        2.401186    1.934111   -3.094752
      7          8           0       -2.067769   -1.067691   -2.370399
      8          1           0        0.075152    2.497204   -4.103577
      9          6           0        1.417264   -0.056329   -2.224559
     10          6           0        2.742614   -0.461791   -1.683776
     11          6           0        3.921988   -0.480891   -2.630072
     12          6           0        5.200858   -0.033622   -2.238989
     13          6           0        3.745424   -1.059006   -3.889905
     14          6           0        6.258146   -0.187021   -3.138881
     15          6           0        6.080533   -0.783961   -4.387577
     16          6           0        4.816379   -1.224413   -4.765591
     17          8           0        2.903649   -0.846512   -0.530340
     18          6           0        5.436953    0.649733   -0.913886
     19          1           0        2.751005   -1.378134   -4.181370
     20          1           0        7.242334    0.176330   -2.856798
     21          1           0        6.924870   -0.892651   -5.061064
     22          1           0        4.659067   -1.681310   -5.737024
     23          6           0        0.263788   -2.089198   -1.191084
     24          1           0       -1.978290    1.121188   -3.740116
     25          1           0        0.022213   -1.887416   -0.140998
     26          1           0        1.229863   -2.594282   -1.201416
     27          1           0       -0.517461   -2.747079   -1.576126
     28          1           0        4.728806    1.471188   -0.775809
     29          1           0        6.451142    1.056108   -0.869925
     30          1           0        5.292915   -0.039056   -0.079545
 ---------------------------------------------------------------------

 SCF Done:  E(UB3LYP) =  -804.769430384     A.U. after    2 cycles

 Alpha  occ. eigenvalues --  -18.99271 -18.94937 -18.94844 -10.14251 -10.09888
 Alpha  occ. eigenvalues --  -10.09177 -10.08722 -10.08211 -10.07804 -10.07741
 Alpha  occ. eigenvalues --  -10.07708 -10.07491 -10.06246 -10.05951 -10.04677
 Alpha  occ. eigenvalues --  -10.04470 -10.04249 -10.03659  -0.92383  -0.87349
 Alpha  occ. eigenvalues --   -0.86905  -0.76309  -0.70595  -0.67588  -0.66227
 Alpha  occ. eigenvalues --   -0.64575  -0.59899  -0.58433  -0.54132  -0.52857
 Alpha  occ. eigenvalues --   -0.50273  -0.48133  -0.43904  -0.43459  -0.39476
 Alpha  occ. eigenvalues --   -0.37336  -0.36181  -0.35789  -0.33899  -0.33326
 Alpha  occ. eigenvalues --   -0.32436  -0.31554  -0.31310  -0.30182  -0.29264
 Alpha  occ. eigenvalues --   -0.28809  -0.27864  -0.27278  -0.26637  -0.26605
 Alpha  occ. eigenvalues --   -0.25907  -0.25381  -0.24395  -0.24106  -0.23695
 Alpha  occ. eigenvalues --   -0.23307  -0.15942  -0.15306  -0.14983  -0.14173
 Alpha  occ. eigenvalues --   -0.13046  -0.11348  -0.10468  -0.03635
 Alpha virt. eigenvalues --    0.05531   0.06949   0.08373   0.08494   0.09151
 Alpha virt. eigenvalues --    0.09493   0.10113   0.10535   0.11215   0.12263
 Alpha virt. eigenvalues --    0.12496   0.13169   0.13316   0.13881   0.14506

  Beta  occ. eigenvalues --  -18.99217 -18.94291 -18.94058 -10.14245 -10.09812
  Beta  occ. eigenvalues --  -10.09078 -10.08721 -10.08211 -10.07803 -10.07740
  Beta  occ. eigenvalues --  -10.07708 -10.07489 -10.06246 -10.05725 -10.04610
  Beta  occ. eigenvalues --  -10.04401 -10.04131 -10.03674  -0.92285  -0.86241
  Beta  occ. eigenvalues --   -0.85545  -0.76303  -0.69996  -0.67585  -0.66155
  Beta  occ. eigenvalues --   -0.64321  -0.59692  -0.58276  -0.53420  -0.52732
  Beta  occ. eigenvalues --   -0.50178  -0.47966  -0.43597  -0.43290  -0.39369
  Beta  occ. eigenvalues --   -0.37292  -0.35996  -0.35641  -0.33692  -0.33178
  Beta  occ. eigenvalues --   -0.32295  -0.31525  -0.31266  -0.29512  -0.29085
  Beta  occ. eigenvalues --   -0.28700  -0.27576  -0.26786  -0.26379  -0.25915
  Beta  occ. eigenvalues --   -0.25657  -0.24894  -0.24154  -0.23532  -0.23089
  Beta  occ. eigenvalues --   -0.21341  -0.15749  -0.14999  -0.13954  -0.12588
  Beta  occ. eigenvalues --   -0.11736  -0.10657  -0.09878
  Beta virt. eigenvalues --    0.03389   0.06013   0.06949   0.08373   0.08512
  Beta virt. eigenvalues --    0.09342   0.10043   0.10197   0.10552   0.11226
  Beta virt. eigenvalues --    0.12283   0.12505   0.13246   0.13406   0.14334

 Mulliken charges and spin densities:
               1          2
     1  C   -0.923505   0.065439
     2  C   -0.199394   0.072605
     3  C    0.214142   0.065614
     4  C   -0.857425   0.046277
     5  C    0.608004   0.159773
     6  O   -0.308960   0.234496
     7  O   -0.386564   0.285745
     8  H    0.158454  -0.008217
     9  C    1.041746   0.052990
    10  C   -1.049435   0.015612
    11  C    1.175467  -0.001963
    12  C    0.376974  -0.000798
    13  C   -0.404420  -0.000475
    14  C   -0.275842  -0.004345
    15  C   -0.255967   0.001543
    16  C   -0.402490  -0.002194
    17  O   -0.218457   0.016431
    18  C   -0.466553  -0.002654
    19  H    0.178008  -0.000512
    20  H    0.112426  -0.000009
    21  H    0.129545   0.000049
    22  H    0.148272  -0.000100
    23  C   -0.538840  -0.002757
    24  H    0.156858  -0.005705
    25  H    0.172261   0.010591
    26  H    0.151596   0.001989
    27  H    0.160817   0.000585
    28  H    0.198709  -0.000205
    29  H    0.114328   0.000291
    30  H    0.190244  -0.000094
 Sum of Mulliken charges =  -1.00000   1.00000

 Dipole moment (field-independent basis, Debye):
    X=             -4.4176    Y=             -0.0471    Z=             10.7321  Tot=             11.6058
 Quadrupole moment (field-independent basis, Debye-Ang):
   XX=           -148.0240   YY=           -122.4917   ZZ=           -138.9093
   XY=             -8.5795   XZ=              9.7488   YZ=              6.9117

  Exact polarizability: 284.892  16.058 171.134  -4.449 -12.839 177.891
 Approx polarizability: 415.036  58.508 282.111  -4.340 -23.096 294.850

                      1                      2                      3
                      A                      A                      A
 Frequencies --     21.5504                27.3246                56.5970
 Red. masses --      4.2485                 5.6861                 4.9002
 Frc consts  --      0.0012                 0.0025                 0.0092
 IR Inten    --      1.6662                 1.4000                 1.4977

                      4                      5                      6
                      A                      A                      A
 Frequencies --     81.7708               104.6439               116.9805
 Red. masses --      1.4021                 3.0774                 5.0490
 Frc consts  --      0.0055                 0.0199                 0.0407
 IR Inten    --      0.7107                 0.6642                12.7716

                      7                      8                      9
                      A                      A                      A
 Frequencies --    128.0333               158.4105               167.4515
 Red. masses --      1.3006                 2.8304                 4.3957
 Frc consts  --      0.0126                 0.0418                 0.0726
 IR Inten    --      1.8414                 4.7181                 0.2845

                     10                     11                     12
                      A                      A                      A
 Frequencies --    194.6132               242.1881               263.5690
 Red. masses --      4.1351                 3.9302                 4.8557
 Frc consts  --      0.0923                 0.1358                 0.1987
 IR Inten    --      0.6675                 6.2665                 0.3162

                     13                     14                     15
                      A                      A                      A
 Frequencies --    318.0741               335.2726               350.9922
 Red. masses --      5.6300                 5.1423                 4.0040
 Frc consts  --      0.3356                 0.3406                 0.2906
 IR Inten    --      0.8107                 1.6419                 1.8971

                     16                     17                     18
                      A                      A                      A
 Frequencies --    388.3359               404.0599               419.3629
 Red. masses --      5.7645                 3.2271                 5.1960
 Frc consts  --      0.5122                 0.3104                 0.5384
 IR Inten    --      8.4960                 3.8506                 3.1343

                     19                     20                     21
                      A                      A                      A
 Frequencies --    453.2495               467.9724               480.4930
 Red. masses --      3.9342                 7.8229                 4.4196
 Frc consts  --      0.4762                 1.0094                 0.6012
 IR Inten    --      4.1722                 6.5541                 2.1206

                     22                     23                     24
                      A                      A                      A
 Frequencies --    537.6802               564.3173               589.9337
 Red. masses --      4.5469                 5.1985                 3.7695
 Frc consts  --      0.7745                 0.9754                 0.7729
 IR Inten    --      4.4352                 1.2661                14.3155

                     25                     26                     27
                      A                      A                      A
 Frequencies --    598.0255               633.3504               672.9417
 Red. masses --      3.8288                 3.8839                 5.4230
 Frc consts  --      0.8068                 0.9179                 1.4469
 IR Inten    --      0.8939                 1.6161                22.2659

                     28                     29                     30
                      A                      A                      A
 Frequencies --    723.0323               736.1168               741.7243
 Red. masses --      5.4463                 1.7803                 3.7810
 Frc consts  --      1.6775                 0.5684                 1.2256
 IR Inten    --      2.3280                22.1743                26.2658

                     31                     32                     33
                      A                      A                      A
 Frequencies --    770.1360               780.7198               811.7724
 Red. masses --      2.7438                 6.0781                 3.4254
 Frc consts  --      0.9588                 2.1828                 1.3299
 IR Inten    --     26.0707                22.2466                14.1835

                     34                     35                     36
                      A                      A                      A
 Frequencies --    835.3083               844.9180               872.3666
 Red. masses --      2.5784                 3.2277                 1.4171
 Frc consts  --      1.0600                 1.3576                 0.6354
 IR Inten    --     22.7035                52.3057                 1.6703

                     37                     38                     39
                      A                      A                      A
 Frequencies --    942.8982               949.4913               961.1507
 Red. masses --      1.7689                 1.8370                 1.2818
 Frc consts  --      0.9266                 0.9758                 0.6977
 IR Inten    --     32.1787                20.9460                 0.9880

                     40                     41                     42
                      A                      A                      A
 Frequencies --    977.1835              1011.6524              1017.4443
 Red. masses --      1.3009                 1.5880                 3.9104
 Frc consts  --      0.7319                 0.9576                 2.3850
 IR Inten    --      0.1756                 0.9364                25.3536

                     43                     44                     45
                      A                      A                      A
 Frequencies --   1042.3491              1059.1422              1066.6688
 Red. masses --      1.5595                 1.5548                 2.2879
 Frc consts  --      0.9983                 1.0276                 1.5337
 IR Inten    --      1.8123                 1.7553                 7.1107

                     46                     47                     48
                      A                      A                      A
 Frequencies --   1082.9717              1123.7832              1149.7386
 Red. masses --      2.6772                 1.7391                 1.5196
 Frc consts  --      1.8500                 1.2940                 1.1835
 IR Inten    --     21.1654                 9.1509                21.1249

                     49                     50                     51
                      A                      A                      A
 Frequencies --   1164.5645              1178.2233              1207.7219
 Red. masses --      2.4559                 1.1099                 3.4473
 Frc consts  --      1.9624                 0.9078                 2.9626
 IR Inten    --     14.7456                 1.4064                81.9869

                     52                     53                     54
                      A                      A                      A
 Frequencies --   1220.2072              1251.8571              1303.1211
 Red. masses --      2.8050                 4.7960                 1.5247
 Frc consts  --      2.4607                 4.4283                 1.5255
 IR Inten    --      5.2733                71.7853                 2.1017

                     55                     56                     57
                      A                      A                      A
 Frequencies --   1327.3228              1345.5360              1403.0270
 Red. masses --      6.3386                 2.1599                 1.2759
 Frc consts  --      6.5795                 2.3039                 1.4798
 IR Inten    --      6.1256                22.2701                23.7764

                     58                     59                     60
                      A                      A                      A
 Frequencies --   1408.5439              1421.5792              1458.8868
 Red. masses --      1.2491                 4.5328                 1.5960
 Frc consts  --      1.4602                 5.3971                 2.0014
 IR Inten    --      6.7346                67.1887                89.7799

                     61                     62                     63
                      A                      A                      A
 Frequencies --   1463.2184              1467.3518              1476.5632
 Red. masses --      1.5786                 1.7459                 1.1257
 Frc consts  --      1.9913                 2.2148                 1.4461
 IR Inten    --      5.0977               105.3556                 8.2434

                     64                     65                     66
                      A                      A                      A
 Frequencies --   1495.1995              1499.0517              1508.0215
 Red. masses --      2.3752                 1.4136                 2.1611
 Frc consts  --      3.1286                 1.8716                 2.8956
 IR Inten    --     38.2293                 1.6295                29.8308

                     67                     68                     69
                      A                      A                      A
 Frequencies --   1512.8642              1538.4446              1609.3182
 Red. masses --      1.9721                 6.7771                 5.8200
 Frc consts  --      2.6593                 9.4506                 8.8808
 IR Inten    --      4.9370               440.7866                 4.3538

                     70                     71                     72
                      A                      A                      A
 Frequencies --   1630.6125              1635.2898              1680.7395
 Red. masses --      6.8980                 5.6524                12.0778
 Frc consts  --     10.8062                 8.9059                20.1021
 IR Inten    --     22.4193                 6.6464               286.2032

                     73                     74                     75
                      A                      A                      A
 Frequencies --   3017.1988              3027.8076              3074.8870
 Red. masses --      1.0482                 1.0365                 1.0835
 Frc consts  --      5.6223                 5.5987                 6.0359
 IR Inten    --     41.5418                48.7104                25.8526

                     76                     77                     78
                      A                      A                      A
 Frequencies --   3088.8295              3100.8135              3119.3585
 Red. masses --      1.1014                 1.0992                 1.1029
 Frc consts  --      6.1915                 6.2268                 6.3230
 IR Inten    --     23.6017                 8.5017                11.1790

                     79                     80                     81
                      A                      A                      A
 Frequencies --   3136.7332              3136.8319              3151.8671
 Red. masses --      1.0852                 1.0852                 1.0885
 Frc consts  --      6.2907                 6.2913                 6.3711
 IR Inten    --     13.8069                16.2619                26.4111

                     82                     83                     84
                      A                      A                      A
 Frequencies --   3159.1378              3166.1201              3179.4980
 Red. masses --      1.0953                 1.0929                 1.0951
 Frc consts  --      6.4405                 6.4549                 6.5226
 IR Inten    --     42.8021                47.8786                18.1515

 - Thermochemistry -
 -------------------
 Temperature   298.150 Kelvin.  Pressure   1.00000 Atm.
 Atom     1 has atomic number  6 and mass  12.00000

 Molecular mass:   240.07864 amu.
 Principal axes and moments of inertia in atomic units:
                           1         2         3
     Eigenvalues --  2151.014786592.510676959.32340
           X            0.99611   0.06909   0.05477
           Y           -0.00625  -0.56430   0.82555
           Z           -0.08794   0.82268   0.56167
 This molecule is an asymmetric top.
 Rotational symmetry number  1.
 Warning -- assumption of classical behavior for rotation
           may cause significant error
 Rotational temperatures (Kelvin)      0.04027     0.01314     0.01245
 Rotational constants (GHZ):           0.83902     0.27376     0.25933
 Zero-point vibrational energy     597200.4 (Joules/Mol)
                                  142.73432 (Kcal/Mol)
 Warning -- explicit consideration of  25 degrees of freedom as
           vibrations may cause significant error
 Vibrational temperatures:     31.01    39.31    81.43   117.65   150.56
          (Kelvin)            168.31   184.21   227.92   240.93   280.01
                              348.45   379.22   457.64   482.38   505.00
                              558.73   581.35   603.37   652.12   673.31
                              691.32   773.60   811.93   848.78   860.43
                              911.25   968.21  1040.28  1059.11  1067.18
                             1108.05  1123.28  1167.96  1201.82  1215.65
                             1255.14  1356.62  1366.11  1382.88  1405.95
                             1455.54  1463.88  1499.71  1523.87  1534.70
                             1558.15  1616.87  1654.22  1675.55  1695.20
                             1737.64  1755.61  1801.14  1874.90  1909.72
                             1935.93  2018.64  2026.58  2045.34  2099.01
                             2105.24  2111.19  2124.45  2151.26  2156.80
                             2169.71  2176.67  2213.48  2315.45  2346.09
                             2352.82  2418.21  4341.08  4356.34  4424.08
                             4444.14  4461.38  4488.06  4513.06  4513.20
                             4534.83  4545.29  4555.34  4574.59

 Zero-point correction=                           0.227462 (Hartree/Particle)
 Thermal correction to Energy=                    0.243661
 Thermal correction to Enthalpy=                  0.244606
 Thermal correction to Gibbs Free Energy=         0.181548
 Sum of electronic and zero-point Energies=           -804.541969
 Sum of electronic and thermal Energies=              -804.525769
 Sum of electronic and thermal Enthalpies=            -804.524825
 Sum of electronic and thermal Free Energies=         -804.587882

                     E (Thermal)             CV                S
                      KCal/Mol        Cal/Mol-Kelvin    Cal/Mol-Kelvin
 Total                  152.900             61.012            132.716
 Electronic               0.000              0.000              1.377
 Translational            0.889              2.981             42.329
 Rotational               0.889              2.981             32.956
 Vibrational            151.122             55.051             56.053
 Vibration     1          0.593              1.985              6.486
 Vibration     2          0.593              1.984              6.015
 Vibration     3          0.596              1.975              4.572
 Vibration     4          0.600              1.962              3.848
 Vibration     5          0.605              1.946              3.366
 Vibration     6          0.608              1.935              3.150
 Vibration     7          0.611              1.925              2.975
 Vibration     8          0.621              1.893              2.569
 Vibration     9          0.624              1.883              2.464
 Vibration    10          0.635              1.847              2.183
 Vibration    11          0.658              1.776              1.787
 Vibration    12          0.670              1.740              1.638
 Vibration    13          0.704              1.639              1.320
 Vibration    14          0.716              1.605              1.235
 Vibration    15          0.728              1.573              1.162
 Vibration    16          0.757              1.495              1.007
 Vibration    17          0.769              1.461              0.948
 Vibration    18          0.782              1.428              0.894
 Vibration    19          0.812              1.354              0.786
 Vibration    20          0.825              1.321              0.743
 Vibration    21          0.837              1.293              0.709
 Vibration    22          0.893              1.167              0.570
 Vibration    23          0.920              1.108              0.515
 Vibration    24          0.947              1.053              0.467
 Vibration    25          0.956              1.036              0.453

 Optimization completed.
    -- Stationary point found.
 Normal termination of Gaussian 16 at Wed Dec 20 04:45:09 2023.
