 Gaussian 16, Revision A.03,
 Gaussian 16:  ES64L-G16RevA.03 25-Dec-2016

 ----------------------------------------------------------------------
 #P UB3LYP/6-311++G(d,p) nosym opt freq SCRF=(PCM,Solvent=n,n-DiMethylF
 ormamide)
 ----------------------------------------------------------------------

 --------
 Oxidized
 --------
 Symbolic Z-matrix:
 Charge =  0 Multiplicity = 1

 SCF Done:  E(UB3LYP) =  -653.249519532     A.U. after   15 cycles
 SCF Done:  E(UB3LYP) =  -653.249601623     A.U. after   11 cycles
 SCF Done:  E(UB3LYP) =  -653.249603072     A.U. after   11 cycles
 SCF Done:  E(UB3LYP) =  -653.249614082     A.U. after   11 cycles
 SCF Done:  E(UB3LYP) =  -653.249615176     A.U. after    9 cycles
 SCF Done:  E(UB3LYP) =  -653.249615251     A.U. after   10 cycles
 Optimization completed.
    -- Stationary point found.
 Normal termination of Gaussian 16 at Sun Feb 11 00:08:40 2024.

 ----------------------------------------------------------------------
 #P Geom=AllCheck Guess=TCheck SCRF=Check GenChk UB3LYP/6-311++G(d,p) F
 req
 ----------------------------------------------------------------------

 Structure from the checkpoint file:  "247.chk"
 --------
 Oxidized
 --------
 Charge =  0 Multiplicity = 1

                          Input orientation:
 ---------------------------------------------------------------------
 Center     Atomic      Atomic             Coordinates (Angstroms)
 Number     Number       Type             X           Y           Z
 ---------------------------------------------------------------------
      1          6           0       -3.191565    1.387029    0.252674
      2          6           0       -2.437928    0.715526   -0.912014
      3          6           0       -1.098026    0.160671   -0.494811
      4          6           0       -0.914188   -1.097664   -0.019743
      5          6           0       -2.011506   -2.109517    0.149248
      6          6           0        0.443736   -1.583043    0.371719
      7          8           0        0.592306   -2.732968    0.769546
      8          6           0        1.600478   -0.654030    0.272275
      9          6           0        2.877437   -1.080830    0.644557
     10          6           0        3.957837   -0.207709    0.553188
     11          6           0        3.767633    1.095985    0.089024
     12          6           0        2.497311    1.526044   -0.284328
     13          6           0        1.409394    0.654401   -0.194352
     14          6           0        0.051976    1.112163   -0.597613
     15          8           0       -0.123952    2.252795   -1.010322
     16          1           0       -4.142067    1.795804   -0.099320
     17          1           0       -2.607031    2.206707    0.676790
     18          1           0       -3.404057    0.672767    1.052204
     19          1           0       -3.053127   -0.077525   -1.339300
     20          1           0       -2.273200    1.454177   -1.697742
     21          1           0       -2.013278   -2.493284    1.172487
     22          1           0       -2.994159   -1.699725   -0.069225
     23          1           0       -1.837767   -2.970866   -0.502767
     24          1           0        3.010633   -2.093786    1.002685
     25          1           0        4.947431   -0.540998    0.842999
     26          1           0        4.609672    1.774513    0.018772
     27          1           0        2.336008    2.533364   -0.646632
 ---------------------------------------------------------------------

 SCF Done:  E(UB3LYP) =  -653.249615251     A.U. after    1 cycles

 Alpha  occ. eigenvalues --  -19.13351 -19.13335 -10.28214 -10.28155 -10.21482
 Alpha  occ. eigenvalues --  -10.21183 -10.20753 -10.20701 -10.19875 -10.19846
 Alpha  occ. eigenvalues --  -10.19810 -10.19786 -10.17969 -10.17504 -10.16651
 Alpha  occ. eigenvalues --   -1.06590  -1.06396  -0.89074  -0.85340  -0.79295
 Alpha  occ. eigenvalues --   -0.77829  -0.76972  -0.72050  -0.68265  -0.65682
 Alpha  occ. eigenvalues --   -0.62795  -0.60334  -0.58380  -0.55153  -0.52044
 Alpha  occ. eigenvalues --   -0.50085  -0.47899  -0.46451  -0.46024  -0.45826
 Alpha  occ. eigenvalues --   -0.45208  -0.43916  -0.43384  -0.42674  -0.41121
 Alpha  occ. eigenvalues --   -0.40916  -0.39858  -0.38947  -0.38191  -0.37563
 Alpha  occ. eigenvalues --   -0.37049  -0.36120  -0.34939  -0.29190  -0.28898
 Alpha  occ. eigenvalues --   -0.27905  -0.27350  -0.27274
 Alpha virt. eigenvalues --   -0.12411  -0.05728  -0.03066  -0.00875   0.00141
 Alpha virt. eigenvalues --    0.00883   0.01635   0.02039   0.02189   0.02484
 Alpha virt. eigenvalues --    0.03868   0.04231   0.04426   0.04495   0.05063

  Beta  occ. eigenvalues --  -19.13351 -19.13335 -10.28214 -10.28155 -10.21482
  Beta  occ. eigenvalues --  -10.21183 -10.20753 -10.20701 -10.19875 -10.19846
  Beta  occ. eigenvalues --  -10.19810 -10.19786 -10.17969 -10.17504 -10.16651
  Beta  occ. eigenvalues --   -1.06590  -1.06396  -0.89074  -0.85340  -0.79295
  Beta  occ. eigenvalues --   -0.77829  -0.76972  -0.72050  -0.68265  -0.65682
  Beta  occ. eigenvalues --   -0.62795  -0.60334  -0.58380  -0.55153  -0.52044
  Beta  occ. eigenvalues --   -0.50085  -0.47899  -0.46451  -0.46024  -0.45826
  Beta  occ. eigenvalues --   -0.45208  -0.43916  -0.43384  -0.42674  -0.41121
  Beta  occ. eigenvalues --   -0.40916  -0.39858  -0.38947  -0.38191  -0.37563
  Beta  occ. eigenvalues --   -0.37049  -0.36120  -0.34939  -0.29190  -0.28898
  Beta  occ. eigenvalues --   -0.27905  -0.27350  -0.27274
  Beta virt. eigenvalues --   -0.12411  -0.05728  -0.03066  -0.00875   0.00141
  Beta virt. eigenvalues --    0.00883   0.01635   0.02039   0.02189   0.02484
  Beta virt. eigenvalues --    0.03868   0.04231   0.04426   0.04495   0.05063

 Mulliken charges and spin densities:
               1          2
     1  C   -0.660639  -0.000000
     2  C   -0.309200   0.000000
     3  C    0.758585  -0.000000
     4  C    0.814460  -0.000000
     5  C   -0.388357   0.000000
     6  C   -0.861579   0.000000
     7  O   -0.270748  -0.000000
     8  C    0.703812  -0.000000
     9  C    0.055023  -0.000000
    10  C   -0.459795  -0.000000
    11  C   -0.414380   0.000000
    12  C    0.000635  -0.000000
    13  C    0.661821  -0.000000
    14  C   -1.522736   0.000000
    15  O   -0.265253  -0.000000
    16  H    0.148809   0.000000
    17  H    0.166920   0.000000
    18  H    0.149779   0.000000
    19  H    0.176452   0.000000
    20  H    0.194824  -0.000000
    21  H    0.189823  -0.000000
    22  H    0.146915   0.000000
    23  H    0.197008  -0.000000
    24  H    0.186887  -0.000000
    25  H    0.207175  -0.000000
    26  H    0.209145  -0.000000
    27  H    0.184614  -0.000000
 Sum of Mulliken charges =  -0.00000   0.00000

 Dipole moment (field-independent basis, Debye):
    X=              0.4800    Y=              0.1824    Z=              0.1802  Tot=              0.5442
 Quadrupole moment (field-independent basis, Debye-Ang):
   XX=            -66.7430   YY=           -101.8699   ZZ=            -91.0234
   XY=              5.8646   XZ=              1.8985   YZ=              5.0768

  Exact polarizability: 260.809   1.256 263.760  20.048 -43.661 139.105
 Approx polarizability: 275.799  -4.745 339.122  24.483 -65.039 166.616

                      1                      2                      3
                      A                      A                      A
 Frequencies --     38.1965                59.9560                83.0495
 Red. masses --      5.4053                 2.2292                 3.2750
 Frc consts  --      0.0046                 0.0047                 0.0133
 IR Inten    --     10.9260                 0.5519                 2.6474

                      4                      5                      6
                      A                      A                      A
 Frequencies --     94.8513               112.5068               156.0146
 Red. masses --      1.2586                 4.6908                 4.3423
 Frc consts  --      0.0067                 0.0350                 0.0623
 IR Inten    --      0.1279                 0.0102                 1.4676

                      7                      8                      9
                      A                      A                      A
 Frequencies --    201.8144               210.2916               256.5430
 Red. masses --      4.0977                 1.1109                 3.4201
 Frc consts  --      0.0983                 0.0289                 0.1326
 IR Inten    --      0.1539                 0.3123                 1.2396

                     10                     11                     12
                      A                      A                      A
 Frequencies --    324.3116               343.7492               368.1650
 Red. masses --      4.0017                 3.8429                 2.7669
 Frc consts  --      0.2480                 0.2675                 0.2210
 IR Inten    --      0.4055                 1.2565                 2.0361

                     13                     14                     15
                      A                      A                      A
 Frequencies --    392.3935               413.3770               421.7570
 Red. masses --      5.6813                 5.7364                 6.9003
 Frc consts  --      0.5154                 0.5775                 0.7232
 IR Inten    --      7.4482                 5.0457                35.4097

                     16                     17                     18
                      A                      A                      A
 Frequencies --    425.2227               461.4453               506.9209
 Red. masses --      3.3458                 4.7086                 7.8004
 Frc consts  --      0.3564                 0.5907                 1.1810
 IR Inten    --      0.8971                 3.5560                 0.1551

                     19                     20                     21
                      A                      A                      A
 Frequencies --    560.8998               622.7521               668.8562
 Red. masses --      4.5510                 4.9611                 6.0873
 Frc consts  --      0.8436                 1.1336                 1.6045
 IR Inten    --      3.1366                 3.7260                 6.5702

                     22                     23                     24
                      A                      A                      A
 Frequencies --    679.7777               702.3900               729.9059
 Red. masses --      3.2896                 4.1276                 2.4590
 Frc consts  --      0.8956                 1.1998                 0.7719
 IR Inten    --      4.5867                13.8389                99.4357

                     25                     26                     27
                      A                      A                      A
 Frequencies --    776.3524               798.4354               811.5700
 Red. masses --      1.7411                 2.3220                 3.2880
 Frc consts  --      0.6183                 0.8721                 1.2759
 IR Inten    --      7.1093                19.0319                 5.2673

                     28                     29                     30
                      A                      A                      A
 Frequencies --    833.1522               879.0269               912.5510
 Red. masses --      2.2059                 2.9749                 1.3867
 Frc consts  --      0.9022                 1.3543                 0.6803
 IR Inten    --      5.3113                62.8639                 0.0045

                     31                     32                     33
                      A                      A                      A
 Frequencies --    954.9813               991.3753               999.2380
 Red. masses --      3.4774                 2.9478                 1.3819
 Frc consts  --      1.8685                 1.7070                 0.8129
 IR Inten    --     25.1727                20.3553                 2.0081

                     34                     35                     36
                      A                      A                      A
 Frequencies --   1021.7882              1038.3254              1041.7793
 Red. masses --      1.3297                 1.6273                 2.1784
 Frc consts  --      0.8179                 1.0337                 1.3929
 IR Inten    --      0.0049                23.8204                25.9681

                     37                     38                     39
                      A                      A                      A
 Frequencies --   1061.2939              1075.9512              1107.4956
 Red. masses --      1.7704                 1.8028                 2.2231
 Frc consts  --      1.1749                 1.2296                 1.6065
 IR Inten    --     32.3018                10.2901                 2.0271

                     40                     41                     42
                      A                      A                      A
 Frequencies --   1135.9806              1161.1508              1181.4704
 Red. masses --      1.9173                 2.4623                 1.2171
 Frc consts  --      1.4578                 1.9560                 1.0010
 IR Inten    --     25.2026                 6.3109                 2.8425

                     43                     44                     45
                      A                      A                      A
 Frequencies --   1208.0975              1273.5922              1288.2347
 Red. masses --      2.3553                 1.8505                 1.7903
 Frc consts  --      2.0253                 1.7685                 1.7505
 IR Inten    --     13.9635               109.8453               248.4336

                     46                     47                     48
                      A                      A                      A
 Frequencies --   1304.6124              1335.5805              1353.8535
 Red. masses --      2.5506                 1.9576                 1.7898
 Frc consts  --      2.5577                 2.0574                 1.9329
 IR Inten    --    362.9690                26.2591                40.2423

                     49                     50                     51
                      A                      A                      A
 Frequencies --   1360.9205              1402.8605              1407.8992
 Red. masses --      7.5630                 1.2232                 1.2935
 Frc consts  --      8.2530                 1.4183                 1.5107
 IR Inten    --     29.4529                 4.5438                41.6029

                     52                     53                     54
                      A                      A                      A
 Frequencies --   1461.7190              1466.3146              1481.7857
 Red. masses --      1.0840                 1.0528                 2.3190
 Frc consts  --      1.3646                 1.3337                 3.0000
 IR Inten    --      7.3087                14.7687                 0.1264

                     55                     56                     57
                      A                      A                      A
 Frequencies --   1486.0305              1490.8340              1503.7757
 Red. masses --      1.0491                 1.0467                 1.2794
 Frc consts  --      1.3649                 1.3706                 1.7046
 IR Inten    --      7.0362                 6.9550                11.0663

                     58                     59                     60
                      A                      A                      A
 Frequencies --   1507.9534              1613.5038              1620.6952
 Red. masses --      1.9976                 6.7936                 6.0140
 Frc consts  --      2.6762                10.4206                 9.3072
 IR Inten    --     17.1798                 4.2457               279.6006

                     61                     62                     63
                      A                      A                      A
 Frequencies --   1655.8949              1684.4822              1688.0684
 Red. masses --      8.1233                11.6983                11.4243
 Frc consts  --     13.1235                19.5572                19.1804
 IR Inten    --    102.8336               923.5330                26.7721

                     64                     65                     66
                      A                      A                      A
 Frequencies --   3029.0358              3040.3567              3065.6753
 Red. masses --      1.0340                 1.0421                 1.0612
 Frc consts  --      5.5898                 5.6753                 5.8765
 IR Inten    --     49.2368                11.8340                23.3243

                     67                     68                     69
                      A                      A                      A
 Frequencies --   3086.0846              3089.0576              3097.1426
 Red. masses --      1.0971                 1.1020                 1.1006
 Frc consts  --      6.1559                 6.1959                 6.2201
 IR Inten    --     12.1351                11.8694                57.7549

                     70                     71                     72
                      A                      A                      A
 Frequencies --   3111.5624              3154.3862              3177.8380
 Red. masses --      1.1045                 1.0973                 1.0874
 Frc consts  --      6.3007                 6.4331                 6.4700
 IR Inten    --     39.7304                20.1229                 3.3400

                     73                     74                     75
                      A                      A                      A
 Frequencies --   3190.1425              3202.2852              3205.3851
 Red. masses --      1.0914                 1.0926                 1.0955
 Frc consts  --      6.5439                 6.6015                 6.6319
 IR Inten    --     10.3939                 3.9633                16.7447

 - Thermochemistry -
 -------------------
 Temperature   298.150 Kelvin.  Pressure   1.00000 Atm.
 Atom     1 has atomic number  6 and mass  12.00000

 Molecular mass:   200.08373 amu.
 Principal axes and moments of inertia in atomic units:
                           1         2         3
     Eigenvalues --  1824.971973535.511775170.55126
           X            0.99485   0.04631  -0.09017
           Y           -0.02106   0.96455   0.26307
           Z            0.09916  -0.25982   0.96055
 This molecule is an asymmetric top.
 Rotational symmetry number  1.
 Warning -- assumption of classical behavior for rotation
           may cause significant error
 Rotational temperatures (Kelvin)      0.04746     0.02450     0.01675
 Rotational constants (GHZ):           0.98891     0.51046     0.34904
 Zero-point vibrational energy     566208.8 (Joules/Mol)
                                  135.32716 (Kcal/Mol)
 Warning -- explicit consideration of  19 degrees of freedom as
           vibrations may cause significant error
 Vibrational temperatures:     54.96    86.26   119.49   136.47   161.87
          (Kelvin)            224.47   290.37   302.56   369.11   466.61
                              494.58   529.71   564.57   594.76   606.81
                              611.80   663.92   729.35   807.01   896.00
                              962.33   978.05  1010.58  1050.17  1117.00
                             1148.77  1167.67  1198.72  1264.72  1312.96
                             1374.01  1426.37  1437.68  1470.13  1493.92
                             1498.89  1526.97  1548.05  1593.44  1634.42
                             1670.64  1699.87  1738.18  1832.42  1853.48
                             1877.05  1921.60  1947.89  1958.06  2018.40
                             2025.65  2103.09  2109.70  2131.96  2138.07
                             2144.98  2163.60  2169.61  2321.47  2331.82
                             2382.46  2423.59  2428.75  4358.11  4374.40
                             4410.82  4440.19  4444.46  4456.10  4476.84
                             4538.46  4572.20  4589.90  4607.37  4611.83

 Zero-point correction=                           0.215658 (Hartree/Particle)
 Thermal correction to Energy=                    0.229070
 Thermal correction to Enthalpy=                  0.230014
 Thermal correction to Gibbs Free Energy=         0.175049
 Sum of electronic and zero-point Energies=           -653.033958
 Sum of electronic and thermal Energies=              -653.020546
 Sum of electronic and thermal Enthalpies=            -653.019601
 Sum of electronic and thermal Free Energies=         -653.074566

                     E (Thermal)             CV                S
                      KCal/Mol        Cal/Mol-Kelvin    Cal/Mol-Kelvin
 Total                  143.743             51.035            115.683
 Electronic               0.000              0.000              0.000
 Translational            0.889              2.981             41.785
 Rotational               0.889              2.981             31.879
 Vibrational            141.966             45.074             42.019
 Vibration     1          0.594              1.982              5.350
 Vibration     2          0.597              1.973              4.459
 Vibration     3          0.600              1.961              3.817
 Vibration     4          0.603              1.953              3.557
 Vibration     5          0.607              1.939              3.225
 Vibration     6          0.620              1.896              2.598
 Vibration     7          0.639              1.837              2.116
 Vibration     8          0.642              1.825              2.041
 Vibration     9          0.666              1.752              1.685
 Vibration    10          0.709              1.627              1.288
 Vibration    11          0.722              1.588              1.195
 Vibration    12          0.741              1.538              1.087
 Vibration    13          0.760              1.486              0.991
 Vibration    14          0.777              1.441              0.915
 Vibration    15          0.784              1.423              0.886
 Vibration    16          0.787              1.415              0.874
 Vibration    17          0.819              1.336              0.762
 Vibration    18          0.862              1.235              0.641
 Vibration    19          0.917              1.116              0.522

                           ! Non-Optimized Parameters !
 Normal termination of Gaussian 16 at Sun Feb 11 00:47:45 2024.
