 Gaussian 16, Revision A.03,
 Gaussian 16:  ES64L-G16RevA.03 25-Dec-2016

 --------------------------------------
 #P UB3LYP/6-311++G(d,p) nosym opt freq
 --------------------------------------

 -------
 Reduced
 -------
 Symbolic Z-matrix:
 Charge = -2 Multiplicity = 1

 SCF Done:  E(UB3LYP) =  -1615.37843850     A.U. after   19 cycles
 SCF Done:  E(UB3LYP) =  -1615.37843776     A.U. after   15 cycles
 SCF Done:  E(UB3LYP) =  -1615.37843805     A.U. after   15 cycles
 SCF Done:  E(UB3LYP) =  -1615.37843852     A.U. after   13 cycles
 SCF Done:  E(UB3LYP) =  -1615.37843857     A.U. after   12 cycles
 Optimization completed.
    -- Stationary point found.
 Normal termination of Gaussian 16 at Sat Jan  6 06:39:04 2024.

 ----------------------------------------------------------------------
 #P Geom=AllCheck Guess=TCheck SCRF=Check GenChk UB3LYP/6-311++G(d,p) F
 req
 ----------------------------------------------------------------------

 Structure from the checkpoint file:  "018-an.chk"
 -------
 Reduced
 -------
 Charge = -2 Multiplicity = 1

                          Input orientation:
 ---------------------------------------------------------------------
 Center     Atomic      Atomic             Coordinates (Angstroms)
 Number     Number       Type             X           Y           Z
 ---------------------------------------------------------------------
      1          6           0       -1.583475    0.720323    1.505027
      2          6           0       -2.754445    1.159725    0.759816
      3          6           0       -2.678914    1.088939   -0.642000
      4          6           0       -1.574035    0.632865   -1.435206
      5          6           0       -0.402138    0.195817   -0.690063
      6          6           0       -0.478354    0.264840    0.711801
      7          8           0       -1.627934    0.615793   -2.726911
      8          8           0       -1.530448    0.735060    2.796796
      9         17           0        0.892904   -0.243917    1.790037
     10         17           0       -4.052122    1.592806   -1.720046
     11          6           0        0.783848   -0.293527   -1.580894
     12          6           0        1.218445    0.873350   -2.509227
     13          6           0        2.080058   -0.779181   -0.894348
     14          6           0        0.294643   -1.491524   -2.439623
     15          6           0       -3.938856    1.653242    1.650450
     16          6           0       -3.445012    2.848943    2.509877
     17          6           0       -5.232456    2.145339    0.963572
     18          6           0       -4.378656    0.487869    2.578085
     19          1           0        0.352276    1.248783   -3.055496
     20          1           0        1.983514    0.527605   -3.221686
     21          1           0        1.655531    1.680159   -1.908976
     22          1           0        2.556584   -0.002067   -0.295426
     23          1           0        2.778961   -1.073758   -1.691087
     24          1           0        1.917305   -1.643489   -0.249299
     25          1           0        0.080703   -2.348800   -1.790338
     26          1           0        1.077359   -1.792976   -3.153046
     27          1           0       -0.607160   -1.207690   -2.983565
     28          1           0       -2.544421    2.561482    3.053881
     29          1           0       -4.226700    3.153009    3.223302
     30          1           0       -3.227774    3.705713    1.861012
     31          1           0       -5.064713    3.007576    0.316965
     32          1           0       -5.929255    2.445504    1.760068
     33          1           0       -5.713898    1.370137    0.366174
     34          1           0       -3.514262    0.109153    3.124929
     35          1           0       -4.818154   -0.317227    1.977299
     36          1           0       -5.143048    0.836223    3.290016
 ---------------------------------------------------------------------

 SCF Done:  E(UB3LYP) =  -1615.37843857     A.U. after    1 cycles

 Alpha  occ. eigenvalues -- -101.27756-101.27756 -18.76540 -18.76539  -9.95544
 Alpha  occ. eigenvalues --   -9.95544  -9.94501  -9.94499  -9.93784  -9.93783
 Alpha  occ. eigenvalues --   -9.93180  -9.93180  -9.91910  -9.91908  -9.91907
 Alpha  occ. eigenvalues --   -9.91906  -9.91186  -9.91185  -9.19242  -9.19242
 Alpha  occ. eigenvalues --   -6.95627  -6.95627  -6.94805  -6.94805  -6.94694
 Alpha  occ. eigenvalues --   -6.94694  -0.69378  -0.68852  -0.59304  -0.59263
 Alpha  occ. eigenvalues --   -0.57081  -0.56508  -0.51779  -0.45854  -0.45025
 Alpha  occ. eigenvalues --   -0.44886  -0.44883  -0.44289  -0.39658  -0.36055
 Alpha  occ. eigenvalues --   -0.30764  -0.28578  -0.27427  -0.23441  -0.22564
 Alpha  occ. eigenvalues --   -0.21693  -0.20548  -0.20514  -0.19623  -0.18276
 Alpha  occ. eigenvalues --   -0.16874  -0.16597  -0.16360  -0.15692  -0.15350
 Alpha  occ. eigenvalues --   -0.14553  -0.13801  -0.13517  -0.11761  -0.11104
 Alpha  occ. eigenvalues --   -0.10349  -0.09985  -0.09771  -0.09292  -0.09281
 Alpha  occ. eigenvalues --   -0.08675  -0.08643  -0.08550  -0.05068  -0.04671
 Alpha  occ. eigenvalues --   -0.03652  -0.03251   0.02251   0.03368   0.05195
 Alpha  occ. eigenvalues --    0.05485   0.12438
 Alpha virt. eigenvalues --    0.16031   0.16170   0.18359   0.18378   0.18529
 Alpha virt. eigenvalues --    0.18634   0.19221   0.19910   0.21380   0.21536
 Alpha virt. eigenvalues --    0.21548   0.21820   0.22353   0.22412   0.23355

  Beta  occ. eigenvalues -- -101.27756-101.27756 -18.76540 -18.76539  -9.95544
  Beta  occ. eigenvalues --   -9.95544  -9.94501  -9.94499  -9.93784  -9.93783
  Beta  occ. eigenvalues --   -9.93180  -9.93180  -9.91910  -9.91908  -9.91907
  Beta  occ. eigenvalues --   -9.91906  -9.91186  -9.91185  -9.19242  -9.19242
  Beta  occ. eigenvalues --   -6.95627  -6.95627  -6.94805  -6.94805  -6.94694
  Beta  occ. eigenvalues --   -6.94694  -0.69378  -0.68852  -0.59304  -0.59263
  Beta  occ. eigenvalues --   -0.57081  -0.56508  -0.51779  -0.45854  -0.45025
  Beta  occ. eigenvalues --   -0.44886  -0.44883  -0.44289  -0.39658  -0.36055
  Beta  occ. eigenvalues --   -0.30764  -0.28578  -0.27427  -0.23441  -0.22564
  Beta  occ. eigenvalues --   -0.21693  -0.20548  -0.20514  -0.19623  -0.18276
  Beta  occ. eigenvalues --   -0.16874  -0.16597  -0.16360  -0.15692  -0.15350
  Beta  occ. eigenvalues --   -0.14553  -0.13801  -0.13517  -0.11761  -0.11104
  Beta  occ. eigenvalues --   -0.10349  -0.09985  -0.09771  -0.09292  -0.09281
  Beta  occ. eigenvalues --   -0.08675  -0.08643  -0.08550  -0.05068  -0.04671
  Beta  occ. eigenvalues --   -0.03652  -0.03251   0.02251   0.03368   0.05195
  Beta  occ. eigenvalues --    0.05485   0.12438
  Beta virt. eigenvalues --    0.16031   0.16170   0.18359   0.18378   0.18529
  Beta virt. eigenvalues --    0.18634   0.19221   0.19910   0.21380   0.21536
  Beta virt. eigenvalues --    0.21548   0.21820   0.22353   0.22412   0.23355

 Mulliken charges and spin densities:
               1          2
     1  C   -1.042101   0.000000
     2  C    0.234208   0.000000
     3  C   -0.074459   0.000000
     4  C   -1.042088  -0.000000
     5  C    0.233931  -0.000000
     6  C   -0.074469  -0.000000
     7  O   -0.405939   0.000000
     8  O   -0.405947  -0.000000
     9  Cl   0.442185  -0.000000
    10  Cl   0.442307   0.000000
    11  C    0.906642  -0.000000
    12  C   -0.693731   0.000000
    13  C   -0.698447  -0.000000
    14  C   -0.693686   0.000000
    15  C    0.906596   0.000000
    16  C   -0.694102  -0.000000
    17  C   -0.698475  -0.000000
    18  C   -0.693249  -0.000000
    19  H    0.213639   0.000000
    20  H    0.062542  -0.000000
    21  H    0.091983   0.000000
    22  H    0.112583   0.000000
    23  H    0.063794   0.000000
    24  H    0.112427  -0.000000
    25  H    0.092267   0.000000
    26  H    0.062532  -0.000000
    27  H    0.213658   0.000000
    28  H    0.213482  -0.000000
    29  H    0.062542   0.000000
    30  H    0.092085   0.000000
    31  H    0.112763   0.000000
    32  H    0.063787  -0.000000
    33  H    0.112241   0.000000
    34  H    0.213749  -0.000000
    35  H    0.092200  -0.000000
    36  H    0.062550   0.000000
 Sum of Mulliken charges =  -2.00000   0.00000

 Dipole moment (field-independent basis, Debye):
    X=             15.1661    Y=             -6.4990    Z=             -0.3353  Tot=             16.5033
 Quadrupole moment (field-independent basis, Debye-Ang):
   XX=           -202.1468   YY=           -150.7901   ZZ=           -199.9437
   XY=             25.0883   XZ=              2.0759   YZ=             -2.5408

  Exact polarizability: 306.620 -49.754 201.197 -23.834  12.068 275.442
 Approx polarizability: 416.698 -57.659 291.554   7.920   1.658 434.650

                      1                      2                      3
                      A                      A                      A
 Frequencies --     15.7790                42.5744                49.0327
 Red. masses --      4.3731                 5.3027                 4.7806
 Frc consts  --      0.0006                 0.0057                 0.0068
 IR Inten    --      1.9041                 0.0000                 1.2616

                      4                      5                      6
                      A                      A                      A
 Frequencies --     80.7573                97.8123               176.4227
 Red. masses --      4.6523                 3.8244                 4.2373
 Frc consts  --      0.0179                 0.0216                 0.0777
 IR Inten    --      3.1090                 0.0002                 6.4337

                      7                      8                      9
                      A                      A                      A
 Frequencies --    211.3141               222.1379               224.6904
 Red. masses --      7.9638                 6.8110                 4.9360
 Frc consts  --      0.2095                 0.1980                 0.1468
 IR Inten    --      0.0001                 5.6534                 7.0552

                     10                     11                     12
                      A                      A                      A
 Frequencies --    238.4786               239.3015               247.4234
 Red. masses --      2.7791                 1.3136                 1.1158
 Frc consts  --      0.0931                 0.0443                 0.0402
 IR Inten    --      0.0000                 0.0002                 0.3799

                     13                     14                     15
                      A                      A                      A
 Frequencies --    265.5253               273.8356               276.7001
 Red. masses --      1.2520                 2.5168                 1.0981
 Frc consts  --      0.0520                 0.1112                 0.0495
 IR Inten    --      0.0001                 0.0000                 0.6157

                     16                     17                     18
                      A                      A                      A
 Frequencies --    295.3267               312.7867               316.8337
 Red. masses --     14.5558                 2.3188                11.6879
 Frc consts  --      0.7480                 0.1337                 0.6913
 IR Inten    --      0.0001                 0.0001                 0.0026

                     19                     20                     21
                      A                      A                      A
 Frequencies --    322.2675               332.0450               349.0499
 Red. masses --      3.2702                 3.1385                 3.8804
 Frc consts  --      0.2001                 0.2039                 0.2786
 IR Inten    --      2.5478                 1.8326                 9.6304

                     22                     23                     24
                      A                      A                      A
 Frequencies --    377.6684               388.4319               388.8125
 Red. masses --      8.8775                 1.0759                 1.1077
 Frc consts  --      0.7460                 0.0956                 0.0987
 IR Inten    --      0.0000                 0.0438                 1.0717

                     25                     26                     27
                      A                      A                      A
 Frequencies --    395.4654               398.7065               414.7625
 Red. masses --     13.0225                 2.1216                 2.0891
 Frc consts  --      1.1999                 0.1987                 0.2117
 IR Inten    --      1.6689                 0.0004                 0.0691

                     28                     29                     30
                      A                      A                      A
 Frequencies --    416.9413               438.9444               482.1537
 Red. masses --      2.4379                 2.5916                 8.7915
 Frc consts  --      0.2497                 0.2942                 1.2042
 IR Inten    --      0.0004                15.5041                 0.0000

                     31                     32                     33
                      A                      A                      A
 Frequencies --    494.7241               528.0415               546.0247
 Red. masses --      4.7729                 3.5947                 2.6809
 Frc consts  --      0.6883                 0.5905                 0.4709
 IR Inten    --      0.0002                15.0149                 0.0000

                     34                     35                     36
                      A                      A                      A
 Frequencies --    591.4305               647.6149               729.8748
 Red. masses --      8.6580                 5.2838                10.2128
 Frc consts  --      1.7843                 1.3057                 3.2055
 IR Inten    --      0.5120                63.2806                 5.7709

                     37                     38                     39
                      A                      A                      A
 Frequencies --    734.5561               756.2016               772.6173
 Red. masses --      9.2025                10.7473                 5.4284
 Frc consts  --      2.9255                 3.6210                 1.9092
 IR Inten    --      0.0011                 0.0002                 0.0001

                     40                     41                     42
                      A                      A                      A
 Frequencies --    812.5909               837.0973               906.0424
 Red. masses --      3.5881                 4.2393                 4.1649
 Frc consts  --      1.3959                 1.7502                 2.0144
 IR Inten    --     74.5040                 0.0003               160.6956

                     43                     44                     45
                      A                      A                      A
 Frequencies --    915.7574               915.9525               924.4733
 Red. masses --      1.9078                 1.9003                 1.8822
 Frc consts  --      0.9427                 0.9393                 0.9478
 IR Inten    --      0.0058                 1.2676                 0.0021

                     46                     47                     48
                      A                      A                      A
 Frequencies --    926.4770               953.7358               953.7900
 Red. masses --      1.9745                 1.1969                 1.1969
 Frc consts  --      0.9986                 0.6414                 0.6415
 IR Inten    --     30.5995                 1.0411                 0.6030

                     49                     50                     51
                      A                      A                      A
 Frequencies --    988.8131              1027.6574              1049.9156
 Red. masses --      4.0331                 1.6981                 1.3669
 Frc consts  --      2.3234                 1.0566                 0.8877
 IR Inten    --      0.0000                62.7596                 0.0001

                     52                     53                     54
                      A                      A                      A
 Frequencies --   1050.3288              1050.5884              1089.2111
 Red. masses --      1.3770                 1.3682                 5.8837
 Frc consts  --      0.8950                 0.8897                 4.1127
 IR Inten    --      0.0002                 0.0265               261.9924

                     55                     56                     57
                      A                      A                      A
 Frequencies --   1122.0643              1202.5236              1203.2778
 Red. masses --      3.6974                 2.5152                 2.5275
 Frc consts  --      2.7427                 2.1430                 2.1561
 IR Inten    --     54.0571                 0.0006                16.4670

                     58                     59                     60
                      A                      A                      A
 Frequencies --   1208.6632              1212.3556              1247.9561
 Red. masses --      2.5232                 2.4201                 2.5554
 Frc consts  --      2.1717                 2.0958                 2.3448
 IR Inten    --      0.0021                 4.3739                 0.0002

                     61                     62                     63
                      A                      A                      A
 Frequencies --   1254.3451              1341.8736              1345.5417
 Red. masses --      3.1482                 2.9264                 1.2030
 Frc consts  --      2.9184                 3.1047                 1.2832
 IR Inten    --     97.3834                 0.0060                13.6415

                     64                     65                     66
                      A                      A                      A
 Frequencies --   1345.6106              1345.6950              1365.0868
 Red. masses --      1.2071                 1.5641                 2.1163
 Frc consts  --      1.2878                 1.6688                 2.3235
 IR Inten    --     30.5466               372.4353                 0.0003

                     67                     68                     69
                      A                      A                      A
 Frequencies --   1371.1878              1392.6021              1397.7336
 Red. masses --      7.4770                 3.8016                 1.3941
 Frc consts  --      8.2827                 4.3438                 1.6047
 IR Inten    --     95.4846                 0.0003               158.1504

                     70                     71                     72
                      A                      A                      A
 Frequencies --   1404.7687              1425.4845              1455.5757
 Red. masses --      1.3121                 2.3517                 1.0484
 Frc consts  --      1.5256                 2.8155                 1.3088
 IR Inten    --      0.0005               391.0812                 0.0124

                     73                     74                     75
                      A                      A                      A
 Frequencies --   1455.8223              1477.2578              1481.2887
 Red. masses --      1.0485                 1.0954                 1.1292
 Frc consts  --      1.3092                 1.4084                 1.4599
 IR Inten    --      3.5467                 0.0003                12.7308

                     76                     77                     78
                      A                      A                      A
 Frequencies --   1488.4750              1488.5989              1491.3196
 Red. masses --      1.0485                 1.0485                 1.0592
 Frc consts  --      1.3687                 1.3689                 1.3880
 IR Inten    --      0.0123                 1.2088                 0.0000

                     79                     80                     81
                      A                      A                      A
 Frequencies --   1492.6709              1517.6250              1517.7088
 Red. masses --      1.0756                 1.0535                 1.0535
 Frc consts  --      1.4120                 1.4296                 1.4298
 IR Inten    --     19.8225                 0.0023                 2.2446

                     82                     83                     84
                      A                      A                      A
 Frequencies --   1530.8550              1532.4318              1557.4961
 Red. masses --      1.0906                 1.0574                 6.9603
 Frc consts  --      1.5059                 1.4631                 9.9480
 IR Inten    --      0.0001                 2.4812                 0.0001

                     85                     86                     87
                      A                      A                      A
 Frequencies --   2947.9772              2948.0228              2954.3959
 Red. masses --      1.0486                 1.0487                 1.0502
 Frc consts  --      5.3693                 5.3699                 5.4009
 IR Inten    --      9.0685               121.6367               330.4334

                     88                     89                     90
                      A                      A                      A
 Frequencies --   2955.4148              2974.6550              2976.5735
 Red. masses --      1.0507                 1.0546                 1.0538
 Frc consts  --      5.4069                 5.4978                 5.5008
 IR Inten    --      0.0071               758.7487                 0.0085

                     91                     92                     93
                      A                      A                      A
 Frequencies --   3022.0983              3022.5224              3026.8142
 Red. masses --      1.0866                 1.0866                 1.0871
 Frc consts  --      5.8471                 5.8486                 5.8682
 IR Inten    --      0.0052               130.4947               105.2717

                     94                     95                     96
                      A                      A                      A
 Frequencies --   3027.1219              3070.6346              3070.7918
 Red. masses --      1.0873                 1.0746                 1.0746
 Frc consts  --      5.8703                 5.9698                 5.9706
 IR Inten    --      0.0014                 0.1073                74.3670

                     97                     98                     99
                      A                      A                      A
 Frequencies --   3094.8286              3094.9081              3097.7432
 Red. masses --      1.0992                 1.0992                 1.0984
 Frc consts  --      6.2031                 6.2033                 6.2101
 IR Inten    --      0.0058                 0.0201                47.6824

                    100                    101                    102
                      A                      A                      A
 Frequencies --   3098.2196              3110.6678              3110.7457
 Red. masses --      1.0982                 1.1020                 1.1020
 Frc consts  --      6.2106                 6.2829                 6.2831
 IR Inten    --      0.2167                 0.3578                90.9409

 - Thermochemistry -
 -------------------
 Temperature   298.150 Kelvin.  Pressure   1.00000 Atm.
 Atom     1 has atomic number  6 and mass  12.00000

 Molecular mass:   288.06839 amu.
 Principal axes and moments of inertia in atomic units:
                           1         2         3
     Eigenvalues --  3653.461486482.846659331.45907
           X            0.85957   0.35759   0.36505
           Y           -0.34804  -0.11339   0.93060
           Z           -0.37417   0.92697  -0.02699
 This molecule is an asymmetric top.
 Rotational symmetry number  1.
 Warning -- assumption of classical behavior for rotation
           may cause significant error
 Rotational temperatures (Kelvin)      0.02371     0.01336     0.00928
 Rotational constants (GHZ):           0.49398     0.27839     0.19340
 Zero-point vibrational energy     746311.4 (Joules/Mol)
                                  178.37271 (Kcal/Mol)
 Warning -- explicit consideration of  34 degrees of freedom as
           vibrations may cause significant error
 Vibrational temperatures:     22.70    61.26    70.55   116.19   140.73
          (Kelvin)            253.83   304.03   319.61   323.28   343.12
                              344.30   355.99   382.03   393.99   398.11
                              424.91   450.03   455.85   463.67   477.74
                              502.20   543.38   558.87   559.41   568.99
                              573.65   596.75   599.89   631.54   693.71
                              711.80   759.73   785.61   850.94   931.77
                             1050.13  1056.86  1088.01  1111.62  1169.14
                             1204.40  1303.59  1317.57  1317.85  1330.11
                             1332.99  1372.21  1372.29  1422.68  1478.57
                             1510.59  1511.19  1511.56  1567.13  1614.40
                             1730.16  1731.25  1739.00  1744.31  1795.53
                             1804.72  1930.66  1935.93  1936.03  1936.16
                             1964.06  1972.83  2003.64  2011.03  2021.15
                             2050.95  2094.25  2094.60  2125.44  2131.24
                             2141.58  2141.76  2145.68  2147.62  2183.52
                             2183.64  2202.56  2204.83  2240.89  4241.48
                             4241.55  4250.72  4252.18  4279.87  4282.63
                             4348.13  4348.74  4354.91  4355.35  4417.96
                             4418.18  4452.77  4452.88  4456.96  4457.65
                             4475.56  4475.67

 Zero-point correction=                           0.284255 (Hartree/Particle)
 Thermal correction to Energy=                    0.303554
 Thermal correction to Enthalpy=                  0.304498
 Thermal correction to Gibbs Free Energy=         0.237167
 Sum of electronic and zero-point Energies=          -1615.094184
 Sum of electronic and thermal Energies=             -1615.074885
 Sum of electronic and thermal Enthalpies=           -1615.073941
 Sum of electronic and thermal Free Energies=        -1615.141271

                     E (Thermal)             CV                S
                      KCal/Mol        Cal/Mol-Kelvin    Cal/Mol-Kelvin
 Total                  190.483             74.995            141.710
 Electronic               0.000              0.000              0.000
 Translational            0.889              2.981             42.872
 Rotational               0.889              2.981             33.757
 Vibrational            188.705             69.033             65.080
 Vibration     1          0.593              1.986              7.105
 Vibration     2          0.595              1.980              5.136
 Vibration     3          0.595              1.978              4.856
 Vibration     4          0.600              1.962              3.872
 Vibration     5          0.603              1.951              3.497
 Vibration     6          0.628              1.871              2.366
 Vibration     7          0.643              1.824              2.032
 Vibration     8          0.648              1.807              1.942
 Vibration     9          0.649              1.803              1.921
 Vibration    10          0.656              1.782              1.814
 Vibration    11          0.657              1.780              1.808
 Vibration    12          0.661              1.767              1.749
 Vibration    13          0.671              1.736              1.625
 Vibration    14          0.676              1.722              1.572
 Vibration    15          0.678              1.717              1.554
 Vibration    16          0.690              1.682              1.443
 Vibration    17          0.701              1.649              1.348
 Vibration    18          0.704              1.641              1.326
 Vibration    19          0.707              1.631              1.299
 Vibration    20          0.714              1.612              1.250
 Vibration    21          0.726              1.577              1.170
 Vibration    22          0.748              1.518              1.048
 Vibration    23          0.757              1.495              1.006
 Vibration    24          0.757              1.494              1.005
 Vibration    25          0.762              1.480              0.979
 Vibration    26          0.765              1.473              0.967
 Vibration    27          0.778              1.438              0.910
 Vibration    28          0.780              1.433              0.902
 Vibration    29          0.799              1.385              0.830
 Vibration    30          0.838              1.290              0.704
 Vibration    31          0.850              1.262              0.671
 Vibration    32          0.883              1.188              0.592
 Vibration    33          0.901              1.148              0.552
 Vibration    34          0.949              1.050              0.465

                           ! Non-Optimized Parameters !
 Normal termination of Gaussian 16 at Sat Jan  6 09:13:54 2024.
