 Q-Chem 5.4, Q-Chem, Inc., Pleasanton, CA (2021)
 Q-Chem 5.4.0 for Intel X86 EM64T Linux

User input:
--------------------------------------------------------------
$molecule
-2 1
C                 -1.5834750000      0.7203230000      1.5050270000
C                 -2.7544450000      1.1597250000      0.7598160000
C                 -2.6789140000      1.0889390000     -0.6420000000
C                 -1.5740350000      0.6328650000     -1.4352060000
C                 -0.4021380000      0.1958170000     -0.6900630000
C                 -0.4783540000      0.2648400000      0.7118010000
O                 -1.6279340000      0.6157930000     -2.7269110000
O                 -1.5304480000      0.7350600000      2.7967960000
Cl                 0.8929040000     -0.2439170000      1.7900370000
Cl                -4.0521220000      1.5928060000     -1.7200460000
C                  0.7838480000     -0.2935270000     -1.5808940000
C                  1.2184450000      0.8733500000     -2.5092270000
C                  2.0800580000     -0.7791810000     -0.8943480000
C                  0.2946430000     -1.4915240000     -2.4396230000
C                 -3.9388560000      1.6532420000      1.6504500000
C                 -3.4450120000      2.8489430000      2.5098770000
C                 -5.2324560000      2.1453390000      0.9635720000
C                 -4.3786560000      0.4878690000      2.5780850000
H                  0.3522760000      1.2487830000     -3.0554960000
H                  1.9835140000      0.5276050000     -3.2216860000
H                  1.6555310000      1.6801590000     -1.9089760000
H                  2.5565840000     -0.0020670000     -0.2954260000
H                  2.7789610000     -1.0737580000     -1.6910870000
H                  1.9173050000     -1.6434890000     -0.2492990000
H                  0.0807030000     -2.3488000000     -1.7903380000
H                  1.0773590000     -1.7929760000     -3.1530460000
H                 -0.6071600000     -1.2076900000     -2.9835650000
H                 -2.5444210000      2.5614820000      3.0538810000
H                 -4.2267000000      3.1530090000      3.2233020000
H                 -3.2277740000      3.7057130000      1.8610120000
H                 -5.0647130000      3.0075760000      0.3169650000
H                 -5.9292550000      2.4455040000      1.7600680000
H                 -5.7138980000      1.3701370000      0.3661740000
H                 -3.5142620000      0.1091530000      3.1249290000
H                 -4.8181540000     -0.3172270000      1.9772990000
H                 -5.1430480000      0.8362230000      3.2900160000
$end
$rem
MAX_SCF_CYCLES=200
BASIS  =  6-311++G(d,p)
GUI  =  2
JOB_TYPE  =  SP
METHOD  =  B3LYP
SOLVENT_METHOD = PCM
$end
$pcm
theory = CPCM
$end
$solvent
dielectric 37.219
opticaldielectric 1.43
$end

--------------------------------------------------------------

             Standard Nuclear Orientation (Angstroms)
    I     Atom           X                Y                Z
 ----------------------------------------------------------------
    1      C      -1.5834750000     0.7203230000     1.5050270000
    2      C      -2.7544450000     1.1597250000     0.7598160000
    3      C      -2.6789140000     1.0889390000    -0.6420000000
    4      C      -1.5740350000     0.6328650000    -1.4352060000
    5      C      -0.4021380000     0.1958170000    -0.6900630000
    6      C      -0.4783540000     0.2648400000     0.7118010000
    7      O      -1.6279340000     0.6157930000    -2.7269110000
    8      O      -1.5304480000     0.7350600000     2.7967960000
    9      Cl      0.8929040000    -0.2439170000     1.7900370000
   10      Cl     -4.0521220000     1.5928060000    -1.7200460000
   11      C       0.7838480000    -0.2935270000    -1.5808940000
   12      C       1.2184450000     0.8733500000    -2.5092270000
   13      C       2.0800580000    -0.7791810000    -0.8943480000
   14      C       0.2946430000    -1.4915240000    -2.4396230000
   15      C      -3.9388560000     1.6532420000     1.6504500000
   16      C      -3.4450120000     2.8489430000     2.5098770000
   17      C      -5.2324560000     2.1453390000     0.9635720000
   18      C      -4.3786560000     0.4878690000     2.5780850000
   19      H       0.3522760000     1.2487830000    -3.0554960000
   20      H       1.9835140000     0.5276050000    -3.2216860000
   21      H       1.6555310000     1.6801590000    -1.9089760000
   22      H       2.5565840000    -0.0020670000    -0.2954260000
   23      H       2.7789610000    -1.0737580000    -1.6910870000
   24      H       1.9173050000    -1.6434890000    -0.2492990000
   25      H       0.0807030000    -2.3488000000    -1.7903380000
   26      H       1.0773590000    -1.7929760000    -3.1530460000
   27      H      -0.6071600000    -1.2076900000    -2.9835650000
   28      H      -2.5444210000     2.5614820000     3.0538810000
   29      H      -4.2267000000     3.1530090000     3.2233020000
   30      H      -3.2277740000     3.7057130000     1.8610120000
   31      H      -5.0647130000     3.0075760000     0.3169650000
   32      H      -5.9292550000     2.4455040000     1.7600680000
   33      H      -5.7138980000     1.3701370000     0.3661740000
   34      H      -3.5142620000     0.1091530000     3.1249290000
   35      H      -4.8181540000    -0.3172270000     1.9772990000
   36      H      -5.1430480000     0.8362230000     3.2900160000
 ----------------------------------------------------------------

    8   -1615.6339950975      8.34e-06  Convergence criterion met
 Total energy in the final basis set =    -1615.6339950975

                    Orbital Energies (a.u.)
 --------------------------------------------------------------

 Alpha MOs
 -- Occupied --
********-101.5149 -19.0138 -19.0138 -10.1849 -10.1849 -10.1808 -10.1807
-10.1699 -10.1699 -10.1489 -10.1489 -10.1352 -10.1352 -10.1296 -10.1295
-10.1295 -10.1295  -9.4300  -9.4300  -7.1939  -7.1939  -7.1856  -7.1856
 -7.1844  -7.1844  -0.9415  -0.9369  -0.8299  -0.8248  -0.7911  -0.7869
 -0.7536  -0.6847  -0.6601  -0.6600  -0.6582  -0.6571  -0.6387  -0.5852
 -0.5238  -0.5210  -0.5016  -0.4633  -0.4410  -0.4384  -0.4159  -0.4149
 -0.4111  -0.4029  -0.3928  -0.3903  -0.3902  -0.3774  -0.3679  -0.3629
 -0.3549  -0.3532  -0.3470  -0.3402  -0.3345  -0.3268  -0.3218  -0.3205
 -0.3115  -0.3107  -0.3049  -0.3008  -0.2893  -0.2887  -0.2716  -0.2665
 -0.2243  -0.2044  -0.1957  -0.1917  -0.1226

          Ground-State Mulliken Net Atomic Charges

     Atom                 Charge (a.u.)
  ----------------------------------------
      1 C                    -0.885785
      2 C                     0.145798
      3 C                    -0.123977
      4 C                    -0.885816
      5 C                     0.145570
      6 C                    -0.124043
      7 O                    -0.567399
      8 O                    -0.567388
      9 Cl                    0.428071
     10 Cl                    0.428192
     11 C                     0.675515
     12 C                    -0.665028
     13 C                    -0.617591
     14 C                    -0.663515
     15 C                     0.674985
     16 C                    -0.663979
     17 C                    -0.617162
     18 C                    -0.664721
     19 H                     0.179989
     20 H                     0.137198
     21 H                     0.127241
     22 H                     0.126847
     23 H                     0.131039
     24 H                     0.127274
     25 H                     0.127870
     26 H                     0.136900
     27 H                     0.179826
     28 H                     0.179613
     29 H                     0.136976
     30 H                     0.127693
     31 H                     0.127380
     32 H                     0.131023
     33 H                     0.126690
     34 H                     0.180113
     35 H                     0.127440
     36 H                     0.137165
  ----------------------------------------
  Sum of atomic charges =    -2.000000

                    Cartesian Multipole Moments
 -----------------------------------------------------------------
    Charge (ESU x 10^10)
                -9.6064
    Dipole Moment (Debye)
         X      15.1695      Y      -6.4899      Z      -0.3357
       Tot      16.5029
    Quadrupole Moments (Debye-Ang)
        XX    -179.1764     XY      17.0292     YY    -144.2471
        XZ      -8.7123     YZ       1.6595     ZZ    -198.1404

 Total job time:  78.60s(wall), 548.35s(cpu)
        *  Thank you very much for using Q-Chem.  Have a nice day.  *
