 Gaussian 16, Revision A.03,
 Gaussian 16:  ES64L-G16RevA.03 25-Dec-2016

 ----------------------------------------------------------------
 #P UB3LYP/6-311++G(d,p) SCRF=(PCM,Solvent=n,n-DiMethylFormamide)
 ----------------------------------------------------------------

 ------------------
 Quinone PCM in DMF
 ------------------
 Symbolic Z-matrix:
 Charge =  0 Multiplicity = 1

                         Standard orientation:
 ---------------------------------------------------------------------
 Center     Atomic      Atomic             Coordinates (Angstroms)
 Number     Number       Type             X           Y           Z
 ---------------------------------------------------------------------
      1          6           0        1.427418   -1.682381   -0.000024
      2          6           0        2.751800   -1.252774   -0.000051
      3          6           0        3.037450    0.111619   -0.000040
      4          6           0        0.385293   -0.755402   -0.000030
      5          6           0        0.674085    0.624551   -0.000043
      6          6           0        2.005811    1.048679   -0.000015
      7          6           0       -1.026407   -1.238544    0.000085
      8          6           0       -2.154496   -0.162593   -0.000107
      9          6           0       -1.739554    1.229442   -0.000067
     10          6           0       -0.433367    1.591616   -0.000003
     11          8           0       -1.313264   -2.412848    0.000193
     12          8           0       -3.317329   -0.515756   -0.000115
     13          1           0        1.177225   -2.736411    0.000017
     14          1           0        3.557371   -1.977765   -0.000053
     15          1           0        4.067057    0.450568   -0.000036
     16          1           0        2.227865    2.107372    0.000025
     17          1           0       -2.530253    1.973708   -0.000067
     18          8           0       -0.028494    2.882172    0.000115
     19          1           0       -0.794770    3.468697    0.000343
 ---------------------------------------------------------------------

 SCF Done:  E(UB3LYP) =  -610.518251288     A.U. after   15 cycles

 The electronic state is 1-A.
 Alpha  occ. eigenvalues --  -19.19389 -19.14771 -19.13266 -10.28882 -10.28842
 Alpha  occ. eigenvalues --  -10.27959 -10.22179 -10.21245 -10.20384 -10.20337
 Alpha  occ. eigenvalues --  -10.20282 -10.20028 -10.19211  -1.10790  -1.08786
 Alpha  occ. eigenvalues --   -1.05794  -0.89882  -0.83588  -0.78819  -0.77029
 Alpha  occ. eigenvalues --   -0.71293  -0.66122  -0.63077  -0.62540  -0.56492
 Alpha  occ. eigenvalues --   -0.55575  -0.53394  -0.48791  -0.48460  -0.46844
 Alpha  occ. eigenvalues --   -0.46696  -0.46209  -0.45708  -0.43756  -0.43457
 Alpha  occ. eigenvalues --   -0.41686  -0.40510  -0.38336  -0.38278  -0.37510
 Alpha  occ. eigenvalues --   -0.31682  -0.30654  -0.28501  -0.26625  -0.25816
 Alpha virt. eigenvalues --   -0.12850  -0.06003  -0.02594  -0.00910   0.00176
 Alpha virt. eigenvalues --    0.01178   0.01582   0.02374   0.02572   0.04377
 Alpha virt. eigenvalues --    0.04422   0.05394   0.05538   0.05910   0.07145

  Beta  occ. eigenvalues --  -19.19389 -19.14771 -19.13266 -10.28882 -10.28842
  Beta  occ. eigenvalues --  -10.27959 -10.22179 -10.21245 -10.20384 -10.20337
  Beta  occ. eigenvalues --  -10.20282 -10.20028 -10.19211  -1.10790  -1.08786
  Beta  occ. eigenvalues --   -1.05794  -0.89882  -0.83588  -0.78819  -0.77029
  Beta  occ. eigenvalues --   -0.71293  -0.66122  -0.63077  -0.62540  -0.56492
  Beta  occ. eigenvalues --   -0.55575  -0.53394  -0.48791  -0.48460  -0.46844
  Beta  occ. eigenvalues --   -0.46696  -0.46209  -0.45708  -0.43756  -0.43457
  Beta  occ. eigenvalues --   -0.41686  -0.40510  -0.38336  -0.38278  -0.37510
  Beta  occ. eigenvalues --   -0.31682  -0.30654  -0.28501  -0.26625  -0.25816
  Beta virt. eigenvalues --   -0.12850  -0.06003  -0.02594  -0.00910   0.00176
  Beta virt. eigenvalues --    0.01178   0.01582   0.02374   0.02572   0.04377
  Beta virt. eigenvalues --    0.04422   0.05394   0.05538   0.05910   0.07145

 Mulliken charges and spin densities:
               1          2
     1  C    0.360264  -0.000000
     2  C   -0.349513  -0.000000
     3  C   -0.393942  -0.000000
     4  C   -0.163739  -0.000000
     5  C   -0.303972   0.000000
     6  C    0.384741   0.000000
     7  C   -0.289218  -0.000000
     8  C   -0.139669   0.000000
     9  C    0.271173   0.000000
    10  C    0.112688   0.000000
    11  O   -0.274719  -0.000000
    12  O   -0.343996   0.000000
    13  H    0.180982   0.000000
    14  H    0.211517   0.000000
    15  H    0.210399   0.000000
    16  H    0.199333  -0.000000
    17  H    0.201402   0.000000
    18  O   -0.184529  -0.000000
    19  H    0.310797   0.000000
 Sum of Mulliken charges =  -0.00000   0.00000

 Dipole moment (field-independent basis, Debye):
    X=              6.6720    Y=              5.9240    Z=              0.0004  Tot=              8.9224
 Quadrupole moment (field-independent basis, Debye-Ang):
   XX=            -80.8435   YY=            -67.8767   ZZ=            -75.5819
   XY=            -16.7826   XZ=             -0.0009   YZ=              0.0027

 Normal termination of Gaussian 16 at Sat Jan 13 19:16:41 2024.
