 Gaussian 16, Revision A.03,
 Gaussian 16:  ES64L-G16RevA.03 25-Dec-2016

 --------------------------------------
 #P UB3LYP/6-311++G(d,p) nosym opt freq
 --------------------------------------

 --------
 Oxidized
 --------
 Symbolic Z-matrix:
 Charge =  0 Multiplicity = 1

 SCF Done:  E(UB3LYP) =  -610.501246360     A.U. after   16 cycles
 Optimization completed.
    -- Stationary point found.
 Normal termination of Gaussian 16 at Tue Jan  9 20:28:37 2024.

 ----------------------------------------------------------------------
 #P Geom=AllCheck Guess=TCheck SCRF=Check GenChk UB3LYP/6-311++G(d,p) F
 req
 ----------------------------------------------------------------------

 Structure from the checkpoint file:  "325.chk"
 --------
 Oxidized
 --------
 Charge =  0 Multiplicity = 1

                          Input orientation:
 ---------------------------------------------------------------------
 Center     Atomic      Atomic             Coordinates (Angstroms)
 Number     Number       Type             X           Y           Z
 ---------------------------------------------------------------------
      1          6           0       -1.818638    2.811151   -0.752829
      2          6           0       -2.917235    1.984911   -0.531554
      3          6           0       -2.720660    0.653392   -0.168814
      4          6           0       -0.522938    2.314059   -0.613633
      5          6           0       -0.324012    0.967387   -0.246790
      6          6           0       -1.431381    0.143710   -0.026182
      7          6           0        0.639496    3.217660   -0.855658
      8          6           0        2.066795    2.613760   -0.687201
      9          6           0        2.151246    1.214555   -0.306370
     10          6           0        1.046767    0.455492   -0.103289
     11          8           0        0.508856    4.377219   -1.171305
     12          8           0        3.039580    3.317405   -0.875560
     13          1           0       -1.942745    3.849530   -1.035568
     14          1           0       -3.921695    2.376809   -0.641247
     15          1           0       -3.573045    0.006560    0.004464
     16          1           0       -1.279231   -0.889600    0.255349
     17          1           0        3.148296    0.800274   -0.190614
     18          8           0        1.106090   -0.848343    0.251609
     19          1           0        2.026406   -1.127564    0.330632
 ---------------------------------------------------------------------

 SCF Done:  E(UB3LYP) =  -610.501246360     A.U. after    1 cycles

 Alpha  occ. eigenvalues --  -19.20364 -19.13793 -19.12311 -10.29186 -10.27955
 Alpha  occ. eigenvalues --  -10.27155 -10.22699 -10.21522 -10.21104 -10.20978
 Alpha  occ. eigenvalues --  -10.20818 -10.20761 -10.19734  -1.11845  -1.07674
 Alpha  occ. eigenvalues --   -1.04652  -0.90357  -0.84046  -0.79273  -0.77535
 Alpha  occ. eigenvalues --   -0.71575  -0.66561  -0.63318  -0.63185  -0.56874
 Alpha  occ. eigenvalues --   -0.55749  -0.53742  -0.48932  -0.48752  -0.46965
 Alpha  occ. eigenvalues --   -0.46678  -0.46460  -0.44840  -0.43693  -0.43587
 Alpha  occ. eigenvalues --   -0.42346  -0.40288  -0.38940  -0.38116  -0.37886
 Alpha  occ. eigenvalues --   -0.31223  -0.30450  -0.28896  -0.26135  -0.25488
 Alpha virt. eigenvalues --   -0.12458  -0.06445  -0.02868  -0.02802  -0.01183
 Alpha virt. eigenvalues --    0.00786   0.01374   0.01587   0.02135   0.03818
 Alpha virt. eigenvalues --    0.04132   0.04806   0.05694   0.05864   0.07022

  Beta  occ. eigenvalues --  -19.20364 -19.13793 -19.12311 -10.29186 -10.27955
  Beta  occ. eigenvalues --  -10.27155 -10.22699 -10.21522 -10.21104 -10.20978
  Beta  occ. eigenvalues --  -10.20818 -10.20761 -10.19734  -1.11845  -1.07674
  Beta  occ. eigenvalues --   -1.04652  -0.90357  -0.84046  -0.79273  -0.77535
  Beta  occ. eigenvalues --   -0.71575  -0.66561  -0.63318  -0.63185  -0.56874
  Beta  occ. eigenvalues --   -0.55749  -0.53742  -0.48932  -0.48752  -0.46965
  Beta  occ. eigenvalues --   -0.46678  -0.46460  -0.44840  -0.43693  -0.43587
  Beta  occ. eigenvalues --   -0.42346  -0.40288  -0.38940  -0.38116  -0.37886
  Beta  occ. eigenvalues --   -0.31223  -0.30450  -0.28896  -0.26135  -0.25488
  Beta virt. eigenvalues --   -0.12458  -0.06445  -0.02868  -0.02802  -0.01183
  Beta virt. eigenvalues --    0.00786   0.01374   0.01587   0.02135   0.03818
  Beta virt. eigenvalues --    0.04132   0.04806   0.05694   0.05864   0.07022

 Mulliken charges and spin densities:
               1          2
     1  C    0.329968   0.000000
     2  C   -0.293305  -0.000000
     3  C   -0.346794  -0.000000
     4  C   -0.179715   0.000000
     5  C   -0.271707   0.000000
     6  C    0.387046   0.000000
     7  C   -0.332145   0.000000
     8  C   -0.280268   0.000000
     9  C    0.214608  -0.000000
    10  C    0.231674   0.000000
    11  O   -0.200596   0.000000
    12  O   -0.244473  -0.000000
    13  H    0.178326  -0.000000
    14  H    0.181204  -0.000000
    15  H    0.177969  -0.000000
    16  H    0.181881   0.000000
    17  H    0.161377   0.000000
    18  O   -0.168906   0.000000
    19  H    0.273856  -0.000000
 Sum of Mulliken charges =  -0.00000   0.00000

 Dipole moment (field-independent basis, Debye):
    X=             -3.0357    Y=             -5.5169    Z=              1.4913  Tot=              6.4711
 Quadrupole moment (field-independent basis, Debye-Ang):
   XX=            -69.7517   YY=            -98.0884   ZZ=            -77.2113
   XY=            -19.4392   XZ=              5.2537   YZ=              5.9488

  Exact polarizability: 174.273  16.927 141.242  -4.257 -21.488  67.876
 Approx polarizability: 281.000  44.742 254.889 -11.600 -42.752 108.773

                      1                      2                      3
                      A                      A                      A
 Frequencies --     44.6336               118.0442               161.9407
 Red. masses --     11.8011                 4.4420                 7.6079
 Frc consts  --      0.0139                 0.0365                 0.1176
 IR Inten    --      0.0003                 2.1120                 1.8805

                      4                      5                      6
                      A                      A                      A
 Frequencies --    185.2530               267.2674               348.0716
 Red. masses --      4.5830                 5.7575                 7.7067
 Frc consts  --      0.0927                 0.2423                 0.5501
 IR Inten    --      3.0555                 1.7664                14.4671

                      7                      8                      9
                      A                      A                      A
 Frequencies --    363.6248               398.6387               401.2169
 Red. masses --     10.9444                10.7402                 2.3539
 Frc consts  --      0.8526                 1.0056                 0.2233
 IR Inten    --      5.2705                 3.1228                21.2909

                     10                     11                     12
                      A                      A                      A
 Frequencies --    414.3582               459.4178               464.4266
 Red. masses --      1.9121                 8.6851                 2.3210
 Frc consts  --      0.1934                 1.0800                 0.2950
 IR Inten    --     73.8186                 0.6959                15.8156

                     13                     14                     15
                      A                      A                      A
 Frequencies --    511.8004               518.7630               638.2154
 Red. masses --      7.2849                 4.1259                 3.7563
 Frc consts  --      1.1243                 0.6542                 0.9015
 IR Inten    --      5.2013                 1.0237                 2.8550

                     16                     17                     18
                      A                      A                      A
 Frequencies --    646.4760               684.5995               713.7807
 Red. masses --      6.2336                 5.6594                 6.9034
 Frc consts  --      1.5349                 1.5628                 2.0722
 IR Inten    --      6.6698                 0.2807                 2.5077

                     19                     20                     21
                      A                      A                      A
 Frequencies --    729.3651               777.6086               807.4285
 Red. masses --      3.5768                 1.7140                 2.0253
 Frc consts  --      1.1211                 0.6106                 0.7779
 IR Inten    --     18.0811                49.9640                 1.2638

                     22                     23                     24
                      A                      A                      A
 Frequencies --    815.1475               840.7422               908.3710
 Red. masses --      4.3471                 2.1504                 1.3565
 Frc consts  --      1.7019                 0.8956                 0.6595
 IR Inten    --      1.9209                40.7520                 0.0334

                     25                     26                     27
                      A                      A                      A
 Frequencies --    965.9712               993.3558              1015.4024
 Red. masses --      7.0056                 1.3815                 1.3309
 Frc consts  --      3.8515                 0.8032                 0.8085
 IR Inten    --     33.7956                 2.0656                 0.0301

                     28                     29                     30
                      A                      A                      A
 Frequencies --   1060.5187              1095.8036              1149.0924
 Red. masses --      2.2122                 3.4099                 1.7648
 Frc consts  --      1.4659                 2.4125                 1.3730
 IR Inten    --      0.4386                47.9499                40.0502

                     31                     32                     33
                      A                      A                      A
 Frequencies --   1186.7913              1212.2692              1218.0879
 Red. masses --      1.1298                 1.7404                 1.7632
 Frc consts  --      0.9376                 1.5069                 1.5414
 IR Inten    --      9.7312               128.2831                 4.2380

                     34                     35                     36
                      A                      A                      A
 Frequencies --   1252.8762              1263.5191              1306.0828
 Red. masses --      2.8111                 3.6695                 1.9755
 Frc consts  --      2.5998                 3.4516                 1.9855
 IR Inten    --     98.9940               130.8094                52.4613

                     37                     38                     39
                      A                      A                      A
 Frequencies --   1349.9380              1436.9319              1479.1746
 Red. masses --      6.8469                 2.2263                 2.3157
 Frc consts  --      7.3514                 2.7083                 2.9852
 IR Inten    --      4.5579                38.8501                15.6214

                     40                     41                     42
                      A                      A                      A
 Frequencies --   1517.7032              1605.1670              1630.0347
 Red. masses --      2.8265                 6.3321                 5.8237
 Frc consts  --      3.8359                 9.6126                 9.1168
 IR Inten    --      9.0580                73.9633                55.7503

                     43                     44                     45
                      A                      A                      A
 Frequencies --   1656.0534              1730.2086              1773.1612
 Red. masses --      7.5685                12.2181                12.8153
 Frc consts  --     12.2295                21.5502                23.7397
 IR Inten    --    230.9268               357.0605                68.6062

                     46                     47                     48
                      A                      A                      A
 Frequencies --   3160.2073              3173.2160              3187.1371
 Red. masses --      1.0915                 1.0871                 1.0918
 Frc consts  --      6.4225                 6.4492                 6.5343
 IR Inten    --      5.9454                 2.6962                 7.7195

                     49                     50                     51
                      A                      A                      A
 Frequencies --   3199.1866              3211.8708              3808.9544
 Red. masses --      1.0945                 1.0933                 1.0660
 Frc consts  --      6.5999                 6.6449                 9.1118
 IR Inten    --      5.6220                 2.2434                87.7080

 - Thermochemistry -
 -------------------
 Temperature   298.150 Kelvin.  Pressure   1.00000 Atm.
 Atom     1 has atomic number  6 and mass  12.00000

 Molecular mass:   174.03169 amu.
 Principal axes and moments of inertia in atomic units:
                           1         2         3
     Eigenvalues --  1452.656412268.358953721.01535
           X            0.92219  -0.38673  -0.00299
           Y            0.37390   0.88957   0.26242
           Z           -0.09883  -0.24312   0.96495
 This molecule is an asymmetric top.
 Rotational symmetry number  1.
 Warning -- assumption of classical behavior for rotation
           may cause significant error
 Rotational temperatures (Kelvin)      0.05962     0.03818     0.02328
 Rotational constants (GHZ):           1.24237     0.79562     0.48501
 Zero-point vibrational energy     358029.8 (Joules/Mol)
                                   85.57117 (Kcal/Mol)
 Warning -- explicit consideration of  14 degrees of freedom as
           vibrations may cause significant error
 Vibrational temperatures:     64.22   169.84   233.00   266.54   384.54
          (Kelvin)            500.80   523.18   573.55   577.26   596.17
                              661.00   668.21   736.37   746.38   918.25
                              930.13   984.99  1026.97  1049.39  1118.81
                             1161.71  1172.82  1209.64  1306.94  1389.82
                             1429.22  1460.94  1525.85  1576.62  1653.29
                             1707.53  1744.18  1752.56  1802.61  1817.92
                             1879.16  1942.26  2067.42  2128.20  2183.64
                             2309.48  2345.26  2382.69  2489.38  2551.18
                             4546.83  4565.55  4585.58  4602.92  4621.17
                             5480.24

 Zero-point correction=                           0.136366 (Hartree/Particle)
 Thermal correction to Energy=                    0.146246
 Thermal correction to Enthalpy=                  0.147191
 Thermal correction to Gibbs Free Energy=         0.100583
 Sum of electronic and zero-point Energies=           -610.364880
 Sum of electronic and thermal Energies=              -610.355000
 Sum of electronic and thermal Enthalpies=            -610.354056
 Sum of electronic and thermal Free Energies=         -610.400664

                     E (Thermal)             CV                S
                      KCal/Mol        Cal/Mol-Kelvin    Cal/Mol-Kelvin
 Total                   91.771             38.978             98.094
 Electronic               0.000              0.000              0.000
 Translational            0.889              2.981             41.370
 Rotational               0.889              2.981             30.884
 Vibrational             89.994             33.016             25.841
 Vibration     1          0.595              1.980              5.042
 Vibration     2          0.608              1.934              3.132
 Vibration     3          0.622              1.889              2.527
 Vibration     4          0.631              1.860              2.275
 Vibration     5          0.672              1.733              1.614
 Vibration     6          0.726              1.579              1.175
 Vibration     7          0.737              1.547              1.107
 Vibration     8          0.765              1.473              0.968
 Vibration     9          0.767              1.467              0.958
 Vibration    10          0.778              1.439              0.911
 Vibration    11          0.817              1.340              0.768
 Vibration    12          0.822              1.329              0.753
 Vibration    13          0.867              1.224              0.629
 Vibration    14          0.874              1.208              0.613

 Optimization completed.
    -- Stationary point found.
 Normal termination of Gaussian 16 at Tue Jan  9 20:37:29 2024.
