 Q-Chem 5.4, Q-Chem, Inc., Pleasanton, CA (2021)
 Q-Chem 5.4.0 for Intel X86 EM64T Linux

User input:
--------------------------------------------------------------
$molecule
-2 1
C                 -1.9488250000      3.0533510000      0.1655620000
C                 -2.8894830000      2.2562140000      0.7872290000
C                 -2.5836350000      0.9047420000      1.0927160000
C                 -0.6648070000      2.5576600000     -0.1834440000
C                 -0.3518240000      1.1797500000      0.1282380000
C                 -1.3356420000      0.3978330000      0.7624950000
C                  0.2992430000      3.3934790000     -0.8287630000
C                  1.5510760000      2.7781350000     -1.1289110000
C                  1.8924450000      1.4551890000     -0.8512970000
C                  0.9489650000      0.5867000000     -0.1986010000
O                  0.1359330000      4.6429690000     -1.1665900000
O                  1.2206560000     -0.6329370000      0.0749080000
H                 -2.1619930000      4.0897620000     -0.0777170000
H                 -3.8658570000      2.6641400000      1.0435800000
H                 -3.3215600000      0.2739240000      1.5837200000
H                 -1.0694070000     -0.6314480000      0.9831930000
C                  3.2423710000      0.9012560000     -1.2342370000
O                  2.4296520000      3.6362630000     -1.7552430000
H                  3.6339750000      1.4478260000     -2.1003420000
H                  3.1079210000     -0.1491960000     -1.5181400000
H                  1.8639240000      4.4479340000     -1.7937950000
C                  4.2867300000      0.9564530000     -0.1001700000
C                  5.6461460000      0.3607900000     -0.4957530000
C                  6.7026740000      0.4101020000      0.6152680000
C                  8.0589820000     -0.1842060000      0.2156550000
H                  3.8832860000      0.4148910000      0.7623560000
H                  4.4221200000      2.0003230000      0.2095210000
H                  6.0312850000      0.8910110000     -1.3786470000
H                  5.5029450000     -0.6831580000     -0.8073650000
H                  6.3195510000     -0.1210490000      1.4960320000
H                  6.8434860000      1.4524810000      0.9301120000
H                  7.9642790000     -1.2380370000     -0.0714710000
H                  8.7913030000     -0.1364550000      1.0301750000
H                  8.4928130000      0.3485690000     -0.6388320000
$end
$rem
MAX_SCF_CYCLES=200
BASIS  =  6-311++G(d,p)
GUI  =  2
JOB_TYPE  =  SP
METHOD  =  B3LYP
SOLVENT_METHOD = COSMO
$end
$solvent
dielectric 37.219
opticaldielectric 1.43
$end

--------------------------------------------------------------

             Standard Nuclear Orientation (Angstroms)
    I     Atom           X                Y                Z
 ----------------------------------------------------------------
    1      C       3.9299673171    -0.4191219491     0.5072440969
    2      C       4.6805688428     0.7367260385     0.5929617017
    3      C       4.0797287553     1.9941480081     0.3260852268
    4      C       2.5545567056    -0.3906807247     0.1555997788
    5      C       1.9408507600     0.8912158498    -0.1161467574
    6      C       2.7373789682     2.0477514200    -0.0184621494
    7      C       1.7893888549    -1.5954053305     0.0685411808
    8      C       0.4191438595    -1.4344280990    -0.2952415887
    9      C      -0.2105594748    -0.2212533998    -0.5699583632
   10      C       0.5272762692     1.0113261724    -0.4875827900
   11      O       2.2268521286    -2.8058261884     0.2819181455
   12      O      -0.0108273951     2.1459420576    -0.7309525168
   13      H       4.3696434010    -1.3915715979     0.7067425949
   14      H       5.7333308392     0.6839946436     0.8656102364
   15      H       4.6673997497     2.9071586888     0.3939371390
   16      H       2.2469952278     2.9936184465    -0.2279076424
   17      C      -1.6647509911    -0.1699295456    -0.9680512083
   18      O      -0.2570984891    -2.6336272308    -0.3672759884
   19      H      -1.9484315390    -1.1111677743    -1.4536706812
   20      H      -1.7881421497     0.6449943726    -1.6911008260
   21      H       0.4801307509    -3.2501494460    -0.1290793368
   22      C      -2.6275870758     0.0900081062     0.2089022663
   23      C      -4.1011434207     0.1702358552    -0.2171345716
   24      C      -5.0779769111     0.4226152635     0.9383530817
   25      C      -6.5483374506     0.5004497443     0.5088817592
   26      H      -2.3313584759     1.0275502987     0.6918834415
   27      H      -2.5057431350    -0.7077738792     0.9522739784
   28      H      -4.3829245541    -0.7630318581    -0.7256411512
   29      H      -4.2154801408     0.9687277943    -0.9633072924
   30      H      -4.7984455477     1.3553495941     1.4448298600
   31      H      -4.9615705117    -0.3725962221     1.6864152360
   32      H      -6.7112595206     1.3092185619    -0.2131425987
   33      H      -7.2207195129     0.6834937536     1.3552943586
   34      H      -6.8758648884    -0.4316689395     0.0333955794
 ----------------------------------------------------------------

   35    -807.1353046440      2.64e-06  Convergence criterion met
 Total energy in the final basis set =     -807.1353046440
    6    -807.4029804181      2.53e-06  Convergence criterion met
 Total energy in the final basis set =     -807.4029804181

                    Orbital Energies (a.u.)
 --------------------------------------------------------------

 Alpha MOs
 -- Occupied --
-19.1135 -19.0314 -19.0221 -10.1785 -10.1756 -10.1642 -10.1539 -10.1490
-10.1488 -10.1488 -10.1454 -10.1450 -10.1443 -10.1443 -10.1401 -10.1385
-10.1340 -10.1256  -1.0274  -0.9434  -0.9346  -0.8250  -0.7916  -0.7696
 -0.7391  -0.7225  -0.7029  -0.6608  -0.6314  -0.5980  -0.5815  -0.5650
 -0.5537  -0.5354  -0.5035  -0.4721  -0.4632  -0.4481  -0.4311  -0.4264
 -0.4163  -0.4076  -0.4017  -0.4000  -0.3843  -0.3793  -0.3721  -0.3633
 -0.3565  -0.3516  -0.3458  -0.3424  -0.3288  -0.3196  -0.3186  -0.3107
 -0.3101  -0.3052  -0.2996  -0.2962  -0.2315  -0.2277  -0.2202  -0.2004
 -0.1936  -0.1120

          Ground-State Mulliken Net Atomic Charges

     Atom                 Charge (a.u.)
  ----------------------------------------
      1 C                    -0.003386
      2 C                    -0.416149
      3 C                    -0.499026
      4 C                     0.298018
      5 C                     0.008952
      6 C                     0.031687
      7 C                    -0.867845
      8 C                    -0.625181
      9 C                     1.982879
     10 C                    -0.758419
     11 O                    -0.774927
     12 O                    -0.680900
     13 H                     0.157245
     14 H                     0.176879
     15 H                     0.171723
     16 H                     0.152335
     17 C                    -0.347870
     18 O                    -0.359645
     19 H                     0.196076
     20 H                     0.169534
     21 H                     0.293336
     22 C                    -0.461137
     23 C                    -0.211820
     24 C                    -0.180050
     25 C                    -0.690057
     26 H                     0.167485
     27 H                     0.146860
     28 H                     0.108008
     29 H                     0.110395
     30 H                     0.131822
     31 H                     0.132862
     32 H                     0.145740
     33 H                     0.149022
     34 H                     0.145547
  ----------------------------------------
  Sum of atomic charges =    -2.000009

                    Cartesian Multipole Moments
 -----------------------------------------------------------------
    Charge (ESU x 10^10)
                -9.6065
    Dipole Moment (Debye)
         X     -11.6025      Y       2.6185      Z       1.9633
       Tot      12.0552
    Quadrupole Moments (Debye-Ang)
        XX    -155.5665     XY      15.0998     YY    -164.6601
        XZ      -3.5737     YZ       6.4139     ZZ    -123.1209

 Total job time:  209.95s(wall), 1644.00s(cpu)
        *  Thank you very much for using Q-Chem.  Have a nice day.  *
