 Gaussian 16, Revision A.03,
 Gaussian 16:  ES64L-G16RevA.03 25-Dec-2016

 ----------------------------------------------------------------------
 #P UB3LYP/6-311++G(d,p) nosym opt freq SCRF=(PCM,Solvent=n,n-DiMethylF
 ormamide)
 ----------------------------------------------------------------------

 --------
 Oxidized
 --------
 Symbolic Z-matrix:
 Charge =  0 Multiplicity = 1

 SCF Done:  E(UB3LYP) =  -839.046101452     A.U. after   15 cycles
 SCF Done:  E(UB3LYP) =  -839.046351025     A.U. after   12 cycles
 SCF Done:  E(UB3LYP) =  -839.046428836     A.U. after   12 cycles
 SCF Done:  E(UB3LYP) =  -839.046424503     A.U. after   11 cycles
 SCF Done:  E(UB3LYP) =  -839.046463761     A.U. after   11 cycles
 SCF Done:  E(UB3LYP) =  -839.046468378     A.U. after   10 cycles
 SCF Done:  E(UB3LYP) =  -839.046471468     A.U. after    9 cycles
 SCF Done:  E(UB3LYP) =  -839.046475044     A.U. after   10 cycles
 SCF Done:  E(UB3LYP) =  -839.046479270     A.U. after   10 cycles
 SCF Done:  E(UB3LYP) =  -839.046482988     A.U. after   10 cycles
 SCF Done:  E(UB3LYP) =  -839.046486206     A.U. after   10 cycles
 SCF Done:  E(UB3LYP) =  -839.046488161     A.U. after   10 cycles
 SCF Done:  E(UB3LYP) =  -839.046488472     A.U. after    9 cycles
 SCF Done:  E(UB3LYP) =  -839.046488528     A.U. after    8 cycles
 SCF Done:  E(UB3LYP) =  -839.046488555     A.U. after    8 cycles
 Optimization completed.
    -- Stationary point found.
 Normal termination of Gaussian 16 at Sat Feb 10 16:49:06 2024.

 ----------------------------------------------------------------------
 #P Geom=AllCheck Guess=TCheck SCRF=Check GenChk UB3LYP/6-311++G(d,p) F
 req
 ----------------------------------------------------------------------

 Structure from the checkpoint file:  "156.chk"
 --------
 Oxidized
 --------
 Charge =  0 Multiplicity = 1

                          Input orientation:
 ---------------------------------------------------------------------
 Center     Atomic      Atomic             Coordinates (Angstroms)
 Number     Number       Type             X           Y           Z
 ---------------------------------------------------------------------
      1          6           0       -1.832648    1.907407   -5.161759
      2          6           0       -1.747725    0.583119   -5.568429
      3          6           0       -1.343657   -0.402865   -4.659980
      4          6           0       -1.515645    2.267352   -3.844143
      5          6           0       -1.109640    1.279122   -2.933031
      6          6           0       -1.027593   -0.056171   -3.353636
      7          6           0       -1.614483    3.687741   -3.430935
      8          6           0       -0.765408    1.624971   -1.532056
      9          6           0       -1.277615    4.033400   -2.055113
     10          6           0       -0.857213    3.014756   -1.116690
     11          6           0       -1.364047    5.384706   -1.640145
     12          6           0       -1.027771    5.703305   -0.290561
     13          6           0       -0.631636    4.751127    0.596145
     14          6           0       -0.530323    3.373590    0.223265
     15          8           0       -1.980890    4.537538   -4.269110
     16          8           0       -0.407860    0.707910   -0.758557
     17          7           0       -1.751579    6.397330   -2.454007
     18          7           0       -0.131635    2.465867    1.144528
     19          6           0        0.215102    2.765244    2.523024
     20          1           0       -2.143418    2.682064   -5.850820
     21          1           0       -1.994229    0.312553   -6.588725
     22          1           0       -1.277460   -1.437471   -4.976636
     23          1           0       -0.713739   -0.806681   -2.639830
     24          1           0       -1.093607    6.738239    0.027695
     25          1           0       -0.387837    5.045225    1.607908
     26          1           0       -1.983119    6.181008   -3.415110
     27          1           0       -1.782134    7.342120   -2.107451
     28          1           0       -0.085411    1.509609    0.804249
     29          1           0       -0.626861    3.198335    3.072706
     30          1           0        1.065045    3.451808    2.591788
     31          1           0        0.493186    1.831310    3.008895
 ---------------------------------------------------------------------

 SCF Done:  E(UB3LYP) =  -839.046488555     A.U. after    1 cycles

 Alpha  occ. eigenvalues --  -19.11168 -19.11056 -14.34079 -14.33524 -10.26532
 Alpha  occ. eigenvalues --  -10.26363 -10.24393 -10.24206 -10.20664 -10.19970
 Alpha  occ. eigenvalues --  -10.19844 -10.19817 -10.19782 -10.19552 -10.19501
 Alpha  occ. eigenvalues --  -10.19153 -10.19098 -10.18934 -10.18899  -1.04249
 Alpha  occ. eigenvalues --   -1.03974  -0.95675  -0.94246  -0.88136  -0.85337
 Alpha  occ. eigenvalues --   -0.80669  -0.77014  -0.76735  -0.75618  -0.70134
 Alpha  occ. eigenvalues --   -0.68445  -0.65865  -0.64459  -0.60985  -0.59008
 Alpha  occ. eigenvalues --   -0.57145  -0.55014  -0.53870  -0.52519  -0.50199
 Alpha  occ. eigenvalues --   -0.48868  -0.48419  -0.47676  -0.45964  -0.45725
 Alpha  occ. eigenvalues --   -0.44307  -0.44251  -0.44144  -0.43764  -0.42847
 Alpha  occ. eigenvalues --   -0.40759  -0.40723  -0.40402  -0.39825  -0.38591
 Alpha  occ. eigenvalues --   -0.37107  -0.36508  -0.35966  -0.35124  -0.28700
 Alpha  occ. eigenvalues --   -0.28092  -0.27412  -0.27117  -0.26752  -0.26415
 Alpha  occ. eigenvalues --   -0.19822
 Alpha virt. eigenvalues --   -0.10797  -0.05925  -0.03299  -0.00784  -0.00448
 Alpha virt. eigenvalues --   -0.00021   0.00292   0.01519   0.01733   0.02647
 Alpha virt. eigenvalues --    0.03306   0.03510   0.03867   0.03978   0.04838

  Beta  occ. eigenvalues --  -19.11168 -19.11056 -14.34079 -14.33524 -10.26532
  Beta  occ. eigenvalues --  -10.26363 -10.24393 -10.24206 -10.20664 -10.19970
  Beta  occ. eigenvalues --  -10.19844 -10.19817 -10.19782 -10.19552 -10.19501
  Beta  occ. eigenvalues --  -10.19153 -10.19098 -10.18934 -10.18899  -1.04249
  Beta  occ. eigenvalues --   -1.03974  -0.95675  -0.94246  -0.88136  -0.85337
  Beta  occ. eigenvalues --   -0.80669  -0.77014  -0.76735  -0.75618  -0.70134
  Beta  occ. eigenvalues --   -0.68445  -0.65865  -0.64459  -0.60985  -0.59008
  Beta  occ. eigenvalues --   -0.57145  -0.55014  -0.53870  -0.52519  -0.50199
  Beta  occ. eigenvalues --   -0.48868  -0.48419  -0.47676  -0.45964  -0.45725
  Beta  occ. eigenvalues --   -0.44307  -0.44251  -0.44144  -0.43764  -0.42847
  Beta  occ. eigenvalues --   -0.40759  -0.40723  -0.40402  -0.39825  -0.38591
  Beta  occ. eigenvalues --   -0.37107  -0.36508  -0.35966  -0.35124  -0.28700
  Beta  occ. eigenvalues --   -0.28092  -0.27412  -0.27117  -0.26752  -0.26415
  Beta  occ. eigenvalues --   -0.19822
  Beta virt. eigenvalues --   -0.10797  -0.05925  -0.03299  -0.00784  -0.00448
  Beta virt. eigenvalues --   -0.00021   0.00292   0.01519   0.01733   0.02647
  Beta virt. eigenvalues --    0.03306   0.03510   0.03867   0.03978   0.04838

 Mulliken charges and spin densities:
               1          2
     1  C    0.132538  -0.000000
     2  C   -0.578101   0.000000
     3  C   -0.536614  -0.000000
     4  C    0.108849   0.000000
     5  C    0.164343   0.000000
     6  C    0.062951   0.000000
     7  C   -0.301543   0.000000
     8  C   -0.135804   0.000000
     9  C    0.607566  -0.000000
    10  C    0.239987   0.000000
    11  C    0.123803   0.000000
    12  C   -0.361561   0.000000
    13  C   -0.179793  -0.000000
    14  C   -0.312058  -0.000000
    15  O   -0.358400   0.000000
    16  O   -0.365997   0.000000
    17  N   -0.448429  -0.000000
    18  N   -0.262914   0.000000
    19  C   -0.360985  -0.000000
    20  H    0.187333  -0.000000
    21  H    0.196516   0.000000
    22  H    0.199041   0.000000
    23  H    0.180932  -0.000000
    24  H    0.208643  -0.000000
    25  H    0.213048  -0.000000
    26  H    0.341999  -0.000000
    27  H    0.311340   0.000000
    28  H    0.405867  -0.000000
    29  H    0.170853  -0.000000
    30  H    0.171123  -0.000000
    31  H    0.175465   0.000000
 Sum of Mulliken charges =  -0.00000   0.00000

 Dipole moment (field-independent basis, Debye):
    X=              0.7431    Y=              3.5315    Z=              4.3435  Tot=              5.6471
 Quadrupole moment (field-independent basis, Debye-Ang):
   XX=           -116.0531   YY=            -70.5771   ZZ=           -106.5226
   XY=             -0.3045   XZ=             -1.3806   YZ=             22.8858

  Exact polarizability: 160.832 -18.657 410.477  70.161  79.528 428.155
 Approx polarizability: 188.646 -28.921 488.470  81.763  72.894 488.482

                      1                      2                      3
                      A                      A                      A
 Frequencies --     36.9945                59.6574                77.5820
 Red. masses --      5.0417                 5.9928                 3.6764
 Frc consts  --      0.0041                 0.0126                 0.0130
 IR Inten    --     43.0397                11.6753                27.1684

                      4                      5                      6
                      A                      A                      A
 Frequencies --    110.4447               134.6069               158.5670
 Red. masses --      3.1796                 4.2962                 1.5370
 Frc consts  --      0.0229                 0.0459                 0.0228
 IR Inten    --     36.7240                 3.5547                80.1929

                      7                      8                      9
                      A                      A                      A
 Frequencies --    178.7177               183.2900               206.6109
 Red. masses --      3.6836                 2.0258                 1.5966
 Frc consts  --      0.0693                 0.0401                 0.0402
 IR Inten    --      0.4542                17.0401                83.8557

                     10                     11                     12
                      A                      A                      A
 Frequencies --    252.3573               253.4490               326.5376
 Red. masses --      5.6665                 4.0173                 5.0494
 Frc consts  --      0.2126                 0.1520                 0.3172
 IR Inten    --     11.3652                 3.1837                 9.0761

                     13                     14                     15
                      A                      A                      A
 Frequencies --    341.8610               348.7357               390.6689
 Red. masses --      5.4282                 4.0345                10.8820
 Frc consts  --      0.3738                 0.2891                 0.9785
 IR Inten    --      9.6294                 7.5060                 1.0982

                     16                     17                     18
                      A                      A                      A
 Frequencies --    417.2044               429.7199               435.6717
 Red. masses --      5.1014                 3.2967                 6.3526
 Frc consts  --      0.5232                 0.3587                 0.7104
 IR Inten    --      2.8514                 2.6538                 0.0211

                     19                     20                     21
                      A                      A                      A
 Frequencies --    438.6445               450.2874               496.6163
 Red. masses --     12.0862                 6.2481                 5.7125
 Frc consts  --      1.3701                 0.7464                 0.8301
 IR Inten    --     28.2070                91.6180                 9.1570

                     22                     23                     24
                      A                      A                      A
 Frequencies --    500.0565               555.4189               575.8067
 Red. masses --      4.6990                 5.9646                 2.0999
 Frc consts  --      0.6923                 1.0841                 0.4102
 IR Inten    --      0.3694                 9.8100                87.7557

                     25                     26                     27
                      A                      A                      A
 Frequencies --    628.9277               638.4001               649.2984
 Red. masses --      5.0541                 1.1666                 1.2639
 Frc consts  --      1.1779                 0.2801                 0.3140
 IR Inten    --      0.5289                42.5656                30.9218

                     28                     29                     30
                      A                      A                      A
 Frequencies --    668.2284               675.6411               718.5053
 Red. masses --      6.2907                 3.5371                 5.7531
 Frc consts  --      1.6550                 0.9513                 1.7499
 IR Inten    --     21.4684                 1.1304                 3.4855

                     31                     32                     33
                      A                      A                      A
 Frequencies --    737.1637               740.6111               764.7223
 Red. masses --      6.2409                 1.8752                 5.9908
 Frc consts  --      1.9981                 0.6060                 2.0641
 IR Inten    --      2.1307               121.2690                 3.8455

                     34                     35                     36
                      A                      A                      A
 Frequencies --    804.5003               815.1639               841.6006
 Red. masses --      5.2801                 2.3271                 1.7376
 Frc consts  --      2.0135                 0.9111                 0.7251
 IR Inten    --      0.5385                19.8850                46.0467

                     37                     38                     39
                      A                      A                      A
 Frequencies --    861.2998               903.9227               908.0110
 Red. masses --      6.7358                 7.1196                 1.4335
 Frc consts  --      2.9441                 3.4274                 0.6963
 IR Inten    --      7.6917                27.6148                 0.0019

                     40                     41                     42
                      A                      A                      A
 Frequencies --    956.5826               983.0821               998.4740
 Red. masses --      5.0883                 1.2961                 1.3822
 Frc consts  --      2.7433                 0.7380                 0.8119
 IR Inten    --     39.4770                 0.0137                 2.2765

                     43                     44                     45
                      A                      A                      A
 Frequencies --   1018.1756              1022.5269              1053.6570
 Red. masses --      1.3179                 2.5901                 1.8966
 Frc consts  --      0.8050                 1.5955                 1.2406
 IR Inten    --      0.0191               183.0991                 9.0293

                     46                     47                     48
                      A                      A                      A
 Frequencies --   1091.7501              1113.0275              1125.1432
 Red. masses --      2.3486                 2.3164                 1.9560
 Frc consts  --      1.6494                 1.6907                 1.4590
 IR Inten    --     24.2774                14.3650               118.7735

                     49                     50                     51
                      A                      A                      A
 Frequencies --   1138.8563              1167.9834              1180.5505
 Red. masses --      1.2791                 1.5556                 1.4868
 Frc consts  --      0.9774                 1.2503                 1.2208
 IR Inten    --      0.2978                22.7239                89.8694

                     52                     53                     54
                      A                      A                      A
 Frequencies --   1193.0179              1207.0443              1256.7031
 Red. masses --      2.2644                 1.3139                 1.8478
 Frc consts  --      1.8989                 1.1279                 1.7194
 IR Inten    --      4.5001               527.7198                 9.5683

                     55                     56                     57
                      A                      A                      A
 Frequencies --   1269.1483              1294.6329              1328.1928
 Red. masses --      5.3346                 2.2067                 2.2117
 Frc consts  --      5.0626                 2.1792                 2.2988
 IR Inten    --   1627.7965                44.9713               119.7435

                     58                     59                     60
                      A                      A                      A
 Frequencies --   1350.6479              1354.3033              1403.0376
 Red. masses --      4.4001                 7.5194                 3.2901
 Frc consts  --      4.7293                 8.1258                 3.8159
 IR Inten    --     91.2057                55.5300               125.2209

                     61                     62                     63
                      A                      A                      A
 Frequencies --   1419.7808              1453.8461              1464.5679
 Red. masses --      4.6299                 2.9644                 1.3036
 Frc consts  --      5.4988                 3.6917                 1.6474
 IR Inten    --     75.7208               133.0575                64.4659

                     64                     65                     66
                      A                      A                      A
 Frequencies --   1482.7850              1482.8874              1501.0721
 Red. masses --      1.1637                 2.0064                 2.6368
 Frc consts  --      1.5075                 2.5995                 3.5005
 IR Inten    --     17.8800                28.0889                 0.6940

                     67                     68                     69
                      A                      A                      A
 Frequencies --   1503.7554              1542.1361              1557.2192
 Red. masses --      1.1179                 3.1089                 4.6830
 Frc consts  --      1.4894                 4.3561                 6.6907
 IR Inten    --     33.5518                22.0691               480.6838

                     70                     71                     72
                      A                      A                      A
 Frequencies --   1583.2189              1586.9617              1603.2193
 Red. masses --      2.8869                 2.0361                 3.0607
 Frc consts  --      4.2634                 3.0213                 4.6351
 IR Inten    --   1015.0770               517.0274               299.7509

                     73                     74                     75
                      A                      A                      A
 Frequencies --   1619.3115              1641.7720              1678.5918
 Red. masses --      4.3553                 6.4011                 7.0277
 Frc consts  --      6.7287                10.1656                11.6669
 IR Inten    --    326.4607               128.4962               108.9887

                     76                     77                     78
                      A                      A                      A
 Frequencies --   3011.0698              3058.2902              3130.9154
 Red. masses --      1.0378                 1.1045                 1.0977
 Frc consts  --      5.5440                 6.0867                 6.3399
 IR Inten    --    184.9494                44.4971                22.5535

                     79                     80                     81
                      A                      A                      A
 Frequencies --   3172.8527              3174.1121              3186.3051
 Red. masses --      1.0872                 1.0898                 1.0920
 Frc consts  --      6.4487                 6.4692                 6.5323
 IR Inten    --      4.6529                17.0565                22.5583

                     82                     83                     84
                      A                      A                      A
 Frequencies --   3203.3516              3205.9880              3212.1522
 Red. masses --      1.0922                 1.0941                 1.0925
 Frc consts  --      6.6030                 6.6259                 6.6418
 IR Inten    --      5.2337                25.4627                 9.7764

                     85                     86                     87
                      A                      A                      A
 Frequencies --   3456.4467              3509.3500              3689.9021
 Red. masses --      1.0794                 1.0518                 1.0996
 Frc consts  --      7.5981                 7.6321                 8.8206
 IR Inten    --     79.5114               125.9084               165.9004

 - Thermochemistry -
 -------------------
 Temperature   298.150 Kelvin.  Pressure   1.00000 Atm.
 Atom     1 has atomic number  6 and mass  12.00000

 Molecular mass:   252.08988 amu.
 Principal axes and moments of inertia in atomic units:
                           1         2         3
     Eigenvalues --  3007.028425472.470228468.12659
           X            0.16778  -0.25587   0.95204
           Y            0.49182   0.85869   0.14411
           Z            0.85438  -0.44405  -0.26991
 This molecule is an asymmetric top.
 Rotational symmetry number  1.
 Warning -- assumption of classical behavior for rotation
           may cause significant error
 Rotational temperatures (Kelvin)      0.02880     0.01583     0.01023
 Rotational constants (GHZ):           0.60017     0.32979     0.21312
 Zero-point vibrational energy     630156.3 (Joules/Mol)
                                  150.61096 (Kcal/Mol)
 Warning -- explicit consideration of  24 degrees of freedom as
           vibrations may cause significant error
 Vibrational temperatures:     53.23    85.83   111.62   158.91   193.67
          (Kelvin)            228.14   257.13   263.71   297.27   363.09
                              364.66   469.81   491.86   501.75   562.09
                              600.26   618.27   626.83   631.11   647.86
                              714.52   719.47   799.12   828.46   904.89
                              918.52   934.20   961.43   972.10  1033.77
                             1060.61  1065.57  1100.26  1157.50  1172.84
                             1210.88  1239.22  1300.54  1306.43  1376.31
                             1414.44  1436.58  1464.93  1471.19  1515.98
                             1570.78  1601.40  1618.83  1638.56  1680.47
                             1698.55  1716.49  1736.67  1808.12  1826.02
                             1862.69  1910.97  1943.28  1948.54  2018.66
                             2042.75  2091.76  2107.19  2133.40  2133.54
                             2159.71  2163.57  2218.79  2240.49  2277.90
                             2283.28  2306.67  2329.83  2362.14  2415.12
                             4332.26  4400.20  4504.69  4565.03  4566.84
                             4584.38  4608.91  4612.70  4621.57  4973.06
                             5049.17  5308.95

 Zero-point correction=                           0.240014 (Hartree/Particle)
 Thermal correction to Energy=                    0.255617
 Thermal correction to Enthalpy=                  0.256561
 Thermal correction to Gibbs Free Energy=         0.197231
 Sum of electronic and zero-point Energies=           -838.806475
 Sum of electronic and thermal Energies=              -838.790871
 Sum of electronic and thermal Enthalpies=            -838.789927
 Sum of electronic and thermal Free Energies=         -838.849257

                     E (Thermal)             CV                S
                      KCal/Mol        Cal/Mol-Kelvin    Cal/Mol-Kelvin
 Total                  160.402             61.850            124.871
 Electronic               0.000              0.000              0.000
 Translational            0.889              2.981             42.474
 Rotational               0.889              2.981             33.299
 Vibrational            158.625             55.888             49.098
 Vibration     1          0.594              1.982              5.414
 Vibration     2          0.597              1.974              4.468
 Vibration     3          0.599              1.964              3.951
 Vibration     4          0.606              1.941              3.261
 Vibration     5          0.613              1.919              2.879
 Vibration     6          0.621              1.893              2.567
 Vibration     7          0.629              1.868              2.342
 Vibration     8          0.631              1.863              2.295
 Vibration     9          0.641              1.830              2.073
 Vibration    10          0.664              1.759              1.714
 Vibration    11          0.665              1.757              1.706
 Vibration    12          0.710              1.622              1.277
 Vibration    13          0.721              1.592              1.203
 Vibration    14          0.726              1.578              1.172
 Vibration    15          0.758              1.490              0.998
 Vibration    16          0.780              1.433              0.902
 Vibration    17          0.791              1.406              0.860
 Vibration    18          0.796              1.392              0.840
 Vibration    19          0.799              1.386              0.831
 Vibration    20          0.809              1.360              0.795
 Vibration    21          0.852              1.258              0.667
 Vibration    22          0.855              1.250              0.658
 Vibration    23          0.911              1.128              0.533
 Vibration    24          0.932              1.084              0.493

                           ! Non-Optimized Parameters !
 Normal termination of Gaussian 16 at Sat Feb 10 18:01:06 2024.
