 Gaussian 16, Revision A.03,
 Gaussian 16:  ES64L-G16RevA.03 25-Dec-2016

 --------------------------------------
 #P UB3LYP/6-311++G(d,p) nosym opt freq
 --------------------------------------

 --------
 Oxidized
 --------
 Symbolic Z-matrix:
 Charge =  0 Multiplicity = 1

 SCF Done:  E(UB3LYP) =  -918.014033593     A.U. after   16 cycles
 SCF Done:  E(UB3LYP) =  -918.038464533     A.U. after   14 cycles
 SCF Done:  E(UB3LYP) =  -918.044930789     A.U. after   14 cycles
 SCF Done:  E(UB3LYP) =  -918.046849608     A.U. after   13 cycles
 SCF Done:  E(UB3LYP) =  -918.047444010     A.U. after   12 cycles
 SCF Done:  E(UB3LYP) =  -918.047602621     A.U. after   11 cycles
 SCF Done:  E(UB3LYP) =  -918.047741571     A.U. after   12 cycles
 SCF Done:  E(UB3LYP) =  -918.047791498     A.U. after   11 cycles
 SCF Done:  E(UB3LYP) =  -918.047814609     A.U. after   11 cycles
 SCF Done:  E(UB3LYP) =  -918.047819057     A.U. after   10 cycles
 SCF Done:  E(UB3LYP) =  -918.047953208     A.U. after   12 cycles
 SCF Done:  E(UB3LYP) =  -918.048009951     A.U. after   14 cycles
 SCF Done:  E(UB3LYP) =  -918.048009907     A.U. after    9 cycles
 SCF Done:  E(UB3LYP) =  -918.048009897     A.U. after    7 cycles
 SCF Done:  E(UB3LYP) =  -918.048009894     A.U. after    5 cycles
 SCF Done:  E(UB3LYP) =  -918.048009894     A.U. after    4 cycles
 SCF Done:  E(UB3LYP) =  -918.047954134     A.U. after   13 cycles
 SCF Done:  E(UB3LYP) =  -918.047954083     A.U. after   10 cycles
 SCF Done:  E(UB3LYP) =  -918.047954138     A.U. after   10 cycles
 Optimization completed.
    -- Stationary point found.
 Normal termination of Gaussian 16 at Thu Dec 21 08:58:01 2023.

 ----------------------------------------------------------------------
 #P Geom=AllCheck Guess=TCheck SCRF=Check GenChk UB3LYP/6-311++G(d,p) F
 req
 ----------------------------------------------------------------------

 Structure from the checkpoint file:  "140.chk"
 --------
 Oxidized
 --------
 Charge =  0 Multiplicity = 1

                          Input orientation:
 ---------------------------------------------------------------------
 Center     Atomic      Atomic             Coordinates (Angstroms)
 Number     Number       Type             X           Y           Z
 ---------------------------------------------------------------------
      1          6           0       -4.994104   -1.046182   -0.122888
      2          8           0       -3.579889   -1.064911    0.031769
      3          6           0       -2.894591    0.095828    0.021825
      4          6           0       -3.520745    1.339490   -0.129567
      5          6           0       -2.770064    2.510935   -0.142176
      6          6           0       -1.389790    2.468112   -0.012790
      7          6           0       -0.747837    1.237082    0.125772
      8          6           0        0.754539    1.270923    0.248047
      9          8           0        1.313665    2.343588    0.396969
     10          6           0        1.479012   -0.022692    0.169093
     11          6           0        2.894494   -0.094600    0.050808
     12          8           0        3.580089    1.063050   -0.032269
     13          6           0        4.995343    1.031860   -0.175256
     14          6           0        3.521328   -1.346417    0.009490
     15          6           0        2.770429   -2.514971    0.090752
     16          6           0        1.389291   -2.461782    0.206242
     17          6           0        0.746689   -1.223651    0.235500
     18          6           0       -0.756578   -1.247540    0.349041
     19          8           0       -1.317174   -2.304016    0.583607
     20          6           0       -1.480037    0.034579    0.155950
     21          1           0       -5.300716   -2.089698   -0.086106
     22          1           0       -5.478486   -0.496794    0.690959
     23          1           0       -5.286764   -0.613908   -1.085537
     24          1           0       -4.594725    1.397999   -0.235968
     25          1           0       -3.275950    3.463235   -0.256613
     26          1           0       -0.789527    3.367740   -0.017132
     27          1           0        5.301855    2.074867   -0.225031
     28          1           0        5.294428    0.519699   -1.095828
     29          1           0        5.474163    0.553617    0.685432
     30          1           0        4.596012   -1.413343   -0.084075
     31          1           0        3.276848   -3.473376    0.060884
     32          1           0        0.788791   -3.358724    0.273773
 ---------------------------------------------------------------------

 SCF Done:  E(UB3LYP) =  -918.047954138     A.U. after    2 cycles

 Alpha  occ. eigenvalues --  -19.16693 -19.16693 -19.10939 -19.10938 -10.26686
 Alpha  occ. eigenvalues --  -10.26685 -10.26032 -10.26032 -10.23507 -10.23506
 Alpha  occ. eigenvalues --  -10.20103 -10.20102 -10.20013 -10.20012 -10.19623
 Alpha  occ. eigenvalues --  -10.19623 -10.19189 -10.19189 -10.18141 -10.18141
 Alpha  occ. eigenvalues --   -1.08811  -1.08796  -1.04574  -1.04397  -0.88368
 Alpha  occ. eigenvalues --   -0.87275  -0.80623  -0.77988  -0.77733  -0.76685
 Alpha  occ. eigenvalues --   -0.71936  -0.71634  -0.68025  -0.65265  -0.64288
 Alpha  occ. eigenvalues --   -0.60103  -0.57827  -0.56315  -0.55885  -0.51906
 Alpha  occ. eigenvalues --   -0.51076  -0.50709  -0.48920  -0.48773  -0.48626
 Alpha  occ. eigenvalues --   -0.48504  -0.47348  -0.45265  -0.44929  -0.43999
 Alpha  occ. eigenvalues --   -0.43716  -0.43046  -0.41981  -0.40492  -0.40184
 Alpha  occ. eigenvalues --   -0.39498  -0.38715  -0.38374  -0.37480  -0.37157
 Alpha  occ. eigenvalues --   -0.34994  -0.34784  -0.33839  -0.33650  -0.28026
 Alpha  occ. eigenvalues --   -0.27258  -0.26175  -0.24943  -0.24164  -0.24145
 Alpha virt. eigenvalues --   -0.10209  -0.05413  -0.03170  -0.01308  -0.01171
 Alpha virt. eigenvalues --   -0.00861   0.00592   0.00778   0.01503   0.02650
 Alpha virt. eigenvalues --    0.02749   0.02926   0.02940   0.03244   0.03978

  Beta  occ. eigenvalues --  -19.16693 -19.16693 -19.10939 -19.10938 -10.26686
  Beta  occ. eigenvalues --  -10.26685 -10.26032 -10.26032 -10.23507 -10.23506
  Beta  occ. eigenvalues --  -10.20103 -10.20102 -10.20013 -10.20012 -10.19623
  Beta  occ. eigenvalues --  -10.19623 -10.19189 -10.19189 -10.18141 -10.18141
  Beta  occ. eigenvalues --   -1.08811  -1.08796  -1.04574  -1.04397  -0.88368
  Beta  occ. eigenvalues --   -0.87275  -0.80623  -0.77988  -0.77733  -0.76685
  Beta  occ. eigenvalues --   -0.71936  -0.71634  -0.68025  -0.65265  -0.64288
  Beta  occ. eigenvalues --   -0.60103  -0.57827  -0.56315  -0.55885  -0.51906
  Beta  occ. eigenvalues --   -0.51076  -0.50709  -0.48920  -0.48773  -0.48626
  Beta  occ. eigenvalues --   -0.48504  -0.47348  -0.45265  -0.44929  -0.43999
  Beta  occ. eigenvalues --   -0.43716  -0.43046  -0.41981  -0.40492  -0.40184
  Beta  occ. eigenvalues --   -0.39498  -0.38715  -0.38374  -0.37480  -0.37157
  Beta  occ. eigenvalues --   -0.34994  -0.34784  -0.33839  -0.33650  -0.28026
  Beta  occ. eigenvalues --   -0.27258  -0.26175  -0.24943  -0.24164  -0.24145
  Beta virt. eigenvalues --   -0.10209  -0.05413  -0.03170  -0.01308  -0.01171
  Beta virt. eigenvalues --   -0.00861   0.00592   0.00778   0.01503   0.02650
  Beta virt. eigenvalues --    0.02749   0.02926   0.02940   0.03244   0.03978

 Mulliken charges and spin densities:
               1          2
     1  C   -0.292034   0.000000
     2  O   -0.091161  -0.000000
     3  C   -0.001508  -0.000000
     4  C   -0.086462   0.000000
     5  C   -0.385016  -0.000000
     6  C    0.013202   0.000000
     7  C    0.697126   0.000000
     8  C   -0.555282  -0.000000
     9  O   -0.211564   0.000000
    10  C   -0.107344   0.000000
    11  C   -0.001906   0.000000
    12  O   -0.091222   0.000000
    13  C   -0.292010   0.000000
    14  C   -0.086741  -0.000000
    15  C   -0.384985   0.000000
    16  C    0.013930  -0.000000
    17  C    0.696484  -0.000000
    18  C   -0.554686   0.000000
    19  O   -0.211539  -0.000000
    20  C   -0.106906   0.000000
    21  H    0.197359   0.000000
    22  H    0.154333   0.000000
    23  H    0.147567  -0.000000
    24  H    0.162141   0.000000
    25  H    0.185319  -0.000000
    26  H    0.173089   0.000000
    27  H    0.197353  -0.000000
    28  H    0.147546   0.000000
    29  H    0.154359   0.000000
    30  H    0.162133  -0.000000
    31  H    0.185325   0.000000
    32  H    0.173099   0.000000
 Sum of Mulliken charges =  -0.00000   0.00000

 Dipole moment (field-independent basis, Debye):
    X=              0.0050    Y=             -0.0586    Z=             -1.3911  Tot=              1.3923
 Quadrupole moment (field-independent basis, Debye-Ang):
   XX=            -73.3829   YY=           -119.6298   ZZ=           -118.3889
   XY=            -11.1640   XZ=              0.6290   YZ=              0.0091

  Exact polarizability: 297.338 -10.393 233.043   1.127  -5.405 106.507
 Approx polarizability: 412.599   7.887 424.201   0.536 -10.673 171.796

                      1                      2                      3
                      A                      A                      A
 Frequencies --     19.8455                43.4435                53.9849
 Red. masses --      6.4903                 4.6757                 6.2234
 Frc consts  --      0.0015                 0.0052                 0.0107
 IR Inten    --      7.7328                 0.7309                 0.3431

                      4                      5                      6
                      A                      A                      A
 Frequencies --     92.8876                97.3284               148.4315
 Red. masses --      3.7972                 3.8114                 4.3089
 Frc consts  --      0.0193                 0.0213                 0.0559
 IR Inten    --      4.9762                 0.1120                 4.0240

                      7                      8                      9
                      A                      A                      A
 Frequencies --    151.1484               180.0788               197.4631
 Red. masses --      4.7676                 2.7278                 4.7079
 Frc consts  --      0.0642                 0.0521                 0.1082
 IR Inten    --      1.8691                 0.0243                 0.1792

                     10                     11                     12
                      A                      A                      A
 Frequencies --    218.1981               251.1461               273.4656
 Red. masses --      1.9186                 1.4433                 1.6760
 Frc consts  --      0.0538                 0.0536                 0.0738
 IR Inten    --      0.3435                 0.0043                 0.8099

                     13                     14                     15
                      A                      A                      A
 Frequencies --    290.3720               303.8415               308.7221
 Red. masses --      3.5281                 3.9952                 3.7914
 Frc consts  --      0.1753                 0.2173                 0.2129
 IR Inten    --      0.0019                 0.0001                 2.7123

                     16                     17                     18
                      A                      A                      A
 Frequencies --    349.1282               366.9626               390.2537
 Red. masses --      6.7272                 9.3364                 7.5126
 Frc consts  --      0.4831                 0.7408                 0.6741
 IR Inten    --      0.0002                 0.0023                14.5577

                     19                     20                     21
                      A                      A                      A
 Frequencies --    413.7373               436.0466               470.0165
 Red. masses --      8.5506                 5.4864                 9.7967
 Frc consts  --      0.8624                 0.6146                 1.2751
 IR Inten    --     10.7947                 0.1411                 0.0807

                     22                     23                     24
                      A                      A                      A
 Frequencies --    489.8655               507.9224               548.1187
 Red. masses --      4.1212                 6.4140                 5.2298
 Frc consts  --      0.5827                 0.9749                 0.9257
 IR Inten    --      1.3758                 0.0189                 3.1129

                     25                     26                     27
                      A                      A                      A
 Frequencies --    569.4209               577.1416               624.2653
 Red. masses --      4.5986                 6.2972                 5.6105
 Frc consts  --      0.8785                 1.2358                 1.2882
 IR Inten    --      0.3639                11.4985                 0.0609

                     28                     29                     30
                      A                      A                      A
 Frequencies --    642.0889               691.0660               704.7195
 Red. masses --      4.9719                 4.0902                 6.1059
 Frc consts  --      1.2077                 1.1509                 1.7866
 IR Inten    --      0.9614                 0.0543                 1.8924

                     31                     32                     33
                      A                      A                      A
 Frequencies --    725.3426               770.0591               778.3377
 Red. masses --      2.5896                 6.5081                 1.5735
 Frc consts  --      0.8027                 2.2738                 0.5616
 IR Inten    --     44.0636                27.5084                 1.0494

                     34                     35                     36
                      A                      A                      A
 Frequencies --    785.9914               813.9822               840.0123
 Red. masses --      7.0736                 1.8142                 4.6173
 Frc consts  --      2.5747                 0.7082                 1.9196
 IR Inten    --     15.1299                63.9250                 0.3148

                     37                     38                     39
                      A                      A                      A
 Frequencies --    848.3153               882.0774               913.4070
 Red. masses --      7.0643                 6.9871                 1.4006
 Frc consts  --      2.9952                 3.2030                 0.6885
 IR Inten    --     38.4931                 0.0003                 0.2385

                     40                     41                     42
                      A                      A                      A
 Frequencies --    914.5397               929.6623               997.8003
 Red. masses --      1.4354                 5.6506                 5.6151
 Frc consts  --      0.7073                 2.8774                 3.2938
 IR Inten    --      0.1395                 0.1285               207.8354

                     43                     44                     45
                      A                      A                      A
 Frequencies --   1000.2374              1000.3671              1085.2798
 Red. masses --      1.3981                 1.3196                 7.3967
 Frc consts  --      0.8241                 0.7780                 5.1330
 IR Inten    --     19.4494                 0.9152                 0.8260

                     46                     47                     48
                      A                      A                      A
 Frequencies --   1094.4048              1099.0454              1131.4460
 Red. masses --      3.6525                 2.4029                 2.1770
 Frc consts  --      2.5775                 1.7101                 1.6420
 IR Inten    --     74.0174                 0.0527                29.3085

                     49                     50                     51
                      A                      A                      A
 Frequencies --   1164.4822              1164.5850              1187.6217
 Red. masses --      1.2735                 1.2735                 1.4479
 Frc consts  --      1.0174                 1.0176                 1.2032
 IR Inten    --      1.0675                 0.5718                14.1528

                     52                     53                     54
                      A                      A                      A
 Frequencies --   1189.6691              1201.7476              1203.5443
 Red. masses --      1.4310                 1.8131                 1.6131
 Frc consts  --      1.1933                 1.5428                 1.3767
 IR Inten    --      0.2570                 0.4104                 6.6893

                     55                     56                     57
                      A                      A                      A
 Frequencies --   1207.9948              1216.8733              1275.0074
 Red. masses --      1.2688                 1.8434                 3.9733
 Frc consts  --      1.0908                 1.6083                 3.8057
 IR Inten    --      0.1266                53.3642               714.5340

                     58                     59                     60
                      A                      A                      A
 Frequencies --   1284.2595              1303.1896              1316.1104
 Red. masses --      2.5223                 3.7539                 7.5786
 Frc consts  --      2.4510                 3.7562                 7.7343
 IR Inten    --      0.9411               554.7852                 1.7447

                     61                     62                     63
                      A                      A                      A
 Frequencies --   1348.8886              1360.6121              1462.2651
 Red. masses --      8.6899                 7.7784                 2.1943
 Frc consts  --      9.3157                 8.4842                 2.7644
 IR Inten    --     14.2214                 0.9047               143.6125

                     64                     65                     66
                      A                      A                      A
 Frequencies --   1466.8574              1467.7445              1478.3139
 Red. masses --      1.5278                 1.8637                 2.6064
 Frc consts  --      1.9368                 2.3656                 3.3560
 IR Inten    --      0.4268                24.9074                 0.4162

                     67                     68                     69
                      A                      A                      A
 Frequencies --   1494.2655              1495.7476              1495.8331
 Red. masses --      1.7342                 1.0462                 1.0460
 Frc consts  --      2.2814                 1.3790                 1.3789
 IR Inten    --     94.6482                11.3794                 7.6356

                     70                     71                     72
                      A                      A                      A
 Frequencies --   1497.9156              1502.7463              1503.5708
 Red. masses --      1.8175                 1.0964                 1.1447
 Frc consts  --      2.4027                 1.4588                 1.5247
 IR Inten    --      1.0013                26.5737                 0.0730

                     73                     74                     75
                      A                      A                      A
 Frequencies --   1606.9171              1614.3967              1620.8025
 Red. masses --      6.1824                 6.2417                 5.8127
 Frc consts  --      9.4058                 9.5846                 8.9968
 IR Inten    --     67.4046                 0.9112               280.4248

                     76                     77                     78
                      A                      A                      A
 Frequencies --   1623.8567              1717.5412              1725.6279
 Red. masses --      6.4826                12.2381                12.5326
 Frc consts  --     10.0715                21.2705                21.9879
 IR Inten    --      1.1877                12.2551               390.2792

                     79                     80                     81
                      A                      A                      A
 Frequencies --   3007.3479              3007.5776              3069.3154
 Red. masses --      1.0346                 1.0347                 1.1064
 Frc consts  --      5.5131                 5.5143                 6.1409
 IR Inten    --    133.1474                 4.0143                17.8126

                     82                     83                     84
                      A                      A                      A
 Frequencies --   3069.3710              3140.1259              3140.1546
 Red. masses --      1.1064                 1.0991                 1.0991
 Frc consts  --      6.1411                 6.3855                 6.3856
 IR Inten    --     48.6607                20.6435                 9.9692

                     85                     86                     87
                      A                      A                      A
 Frequencies --   3172.6857              3172.7191              3212.0771
 Red. masses --      1.0892                 1.0892                 1.0906
 Frc consts  --      6.4595                 6.4596                 6.6293
 IR Inten    --     18.1424                 3.2969                 0.4097

                     88                     89                     90
                      A                      A                      A
 Frequencies --   3212.1166              3214.7422              3214.9074
 Red. masses --      1.0906                 1.0930                 1.0931
 Frc consts  --      6.6296                 6.6555                 6.6565
 IR Inten    --      0.5308                21.2901                 0.4838

 - Thermochemistry -
 -------------------
 Temperature   298.150 Kelvin.  Pressure   1.00000 Atm.
 Atom     1 has atomic number  6 and mass  12.00000

 Molecular mass:   268.07356 amu.
 Principal axes and moments of inertia in atomic units:
                           1         2         3
     Eigenvalues --  2587.370707590.44034**********
           X            0.99972   0.02354  -0.00361
           Y           -0.02337   0.99883   0.04229
           Z            0.00460  -0.04220   0.99910
 This molecule is an asymmetric top.
 Rotational symmetry number  1.
 Warning -- assumption of classical behavior for rotation
           may cause significant error
 Rotational temperatures (Kelvin)      0.03348     0.01141     0.00859
 Rotational constants (GHZ):           0.69752     0.23777     0.17894
 Zero-point vibrational energy     639126.1 (Joules/Mol)
                                  152.75481 (Kcal/Mol)
 Warning -- explicit consideration of  26 degrees of freedom as
           vibrations may cause significant error
 Vibrational temperatures:     28.55    62.51    77.67   133.64   140.03
          (Kelvin)            213.56   217.47   259.09   284.11   313.94
                              361.34   393.46   417.78   437.16   444.18
                              502.32   527.98   561.49   595.28   627.37
                              676.25   704.81   730.79   788.62   819.27
                              830.38   898.18   923.82   994.29  1013.93
                             1043.61  1107.94  1119.85  1130.87  1171.14
                             1208.59  1220.54  1269.11  1314.19  1315.82
                             1337.58  1435.61  1439.12  1439.31  1561.48
                             1574.60  1581.28  1627.90  1675.43  1675.58
                             1708.72  1711.67  1729.05  1731.63  1738.04
                             1750.81  1834.45  1847.76  1875.00  1893.59
                             1940.75  1957.62  2103.87  2110.48  2111.76
                             2126.96  2149.91  2152.05  2152.17  2155.17
                             2162.12  2163.30  2312.00  2322.76  2331.97
                             2336.37  2471.16  2482.79  4326.90  4327.23
                             4416.06  4416.14  4517.94  4517.98  4564.79
                             4564.84  4621.46  4621.52  4625.30  4625.53

 Zero-point correction=                           0.243430 (Hartree/Particle)
 Thermal correction to Energy=                    0.260101
 Thermal correction to Enthalpy=                  0.261045
 Thermal correction to Gibbs Free Energy=         0.198129
 Sum of electronic and zero-point Energies=           -917.804524
 Sum of electronic and thermal Energies=              -917.787853
 Sum of electronic and thermal Enthalpies=            -917.786909
 Sum of electronic and thermal Free Energies=         -917.849826

                     E (Thermal)             CV                S
                      KCal/Mol        Cal/Mol-Kelvin    Cal/Mol-Kelvin
 Total                  163.216             64.226            132.420
 Electronic               0.000              0.000              0.000
 Translational            0.889              2.981             42.657
 Rotational               0.889              2.981             33.648
 Vibrational            161.438             58.265             56.114
 Vibration     1          0.593              1.986              6.650
 Vibration     2          0.595              1.980              5.096
 Vibration     3          0.596              1.976              4.666
 Vibration     4          0.602              1.954              3.598
 Vibration     5          0.603              1.951              3.507
 Vibration     6          0.618              1.904              2.692
 Vibration     7          0.619              1.901              2.658
 Vibration     8          0.629              1.867              2.328
 Vibration     9          0.637              1.843              2.157
 Vibration    10          0.646              1.813              1.974
 Vibration    11          0.663              1.761              1.723
 Vibration    12          0.676              1.722              1.574
 Vibration    13          0.686              1.692              1.472
 Vibration    14          0.695              1.666              1.396
 Vibration    15          0.698              1.657              1.369
 Vibration    16          0.726              1.577              1.170
 Vibration    17          0.740              1.540              1.092
 Vibration    18          0.758              1.491              0.999
 Vibration    19          0.777              1.440              0.914
 Vibration    20          0.796              1.392              0.839
 Vibration    21          0.827              1.317              0.738
 Vibration    22          0.846              1.273              0.684
 Vibration    23          0.863              1.232              0.639
 Vibration    24          0.903              1.144              0.548
 Vibration    25          0.925              1.097              0.505
 Vibration    26          0.934              1.081              0.491

                           ! Non-Optimized Parameters !
 Normal termination of Gaussian 16 at Thu Dec 21 09:42:47 2023.
