 Gaussian 16, Revision A.03,
 Gaussian 16:  ES64L-G16RevA.03 25-Dec-2016

 ----------------------------------------------------------------------
 #P UB3LYP/6-311++G(d,p) nosym opt freq SCRF=(PCM,Solvent=n,n-DiMethylF
 ormamide)
 ----------------------------------------------------------------------

 --------
 Oxidized
 --------
 Symbolic Z-matrix:
 Charge =  0 Multiplicity = 1

 SCF Done:  E(UB3LYP) =  -1663.58716855     A.U. after   16 cycles
 SCF Done:  E(UB3LYP) =  -1663.58726587     A.U. after   12 cycles
 SCF Done:  E(UB3LYP) =  -1663.58730467     A.U. after   11 cycles
 SCF Done:  E(UB3LYP) =  -1663.58731006     A.U. after   10 cycles
 SCF Done:  E(UB3LYP) =  -1663.58731015     A.U. after   10 cycles
 Optimization completed.
    -- Stationary point found.
 Normal termination of Gaussian 16 at Sat Feb 10 16:05:43 2024.

 ----------------------------------------------------------------------
 #P Geom=AllCheck Guess=TCheck SCRF=Check GenChk UB3LYP/6-311++G(d,p) F
 req
 ----------------------------------------------------------------------

 Structure from the checkpoint file:  "158.chk"
 --------
 Oxidized
 --------
 Charge =  0 Multiplicity = 1

                          Input orientation:
 ---------------------------------------------------------------------
 Center     Atomic      Atomic             Coordinates (Angstroms)
 Number     Number       Type             X           Y           Z
 ---------------------------------------------------------------------
      1          7           0       -2.589601    0.657419    2.267609
      2          6           0       -2.420244    0.337793    0.964433
      3          6           0       -3.565653    0.190903    0.138173
      4          6           0       -3.447772   -0.133756   -1.193866
      5          6           0       -2.185850   -0.329230   -1.774284
      6          6           0       -1.045137   -0.194263   -0.999994
      7          6           0        0.269880   -0.413476   -1.666595
      8          8           0        0.350858   -0.702422   -2.854207
      9          6           0        1.493585   -0.266392   -0.835058
     10          6           0        2.744927   -0.460542   -1.420639
     11          6           0        3.900758   -0.329319   -0.664160
     12         17           0        5.446774   -0.579622   -1.434928
     13          6           0        3.808573   -0.000114    0.697296
     14         17           0        5.236689    0.173055    1.685374
     15          6           0        2.563959    0.193894    1.281333
     16          6           0        1.400145    0.063279    0.523831
     17          6           0        0.079965    0.281030    1.189010
     18          8           0        0.059241    0.571833    2.392917
     19          6           0       -1.128898    0.141165    0.382832
     20          1           0       -1.777073    0.762767    2.859033
     21          1           0       -3.515792    0.784962    2.641424
     22          1           0       -4.544472    0.340841    0.580400
     23          1           0       -4.340907   -0.239044   -1.798721
     24          1           0       -2.087997   -0.584508   -2.820574
     25          1           0        2.806011   -0.714487   -2.470345
     26          1           0        2.488024    0.448235    2.329704
 ---------------------------------------------------------------------

 SCF Done:  E(UB3LYP) =  -1663.58731015     A.U. after    1 cycles

 Alpha  occ. eigenvalues -- -101.57738-101.57706 -19.13249 -19.12927 -14.34027
 Alpha  occ. eigenvalues --  -10.28631 -10.28343 -10.27367 -10.27268 -10.25329
 Alpha  occ. eigenvalues --  -10.21984 -10.21841 -10.21580 -10.21445 -10.21047
 Alpha  occ. eigenvalues --  -10.20582 -10.20043 -10.19611 -10.19092  -9.49197
 Alpha  occ. eigenvalues --   -9.49165  -7.25673  -7.25642  -7.24688  -7.24654
 Alpha  occ. eigenvalues --   -7.24616  -7.24585  -1.06604  -1.06120  -0.95067
 Alpha  occ. eigenvalues --   -0.94040  -0.88292  -0.88108  -0.86540  -0.80642
 Alpha  occ. eigenvalues --   -0.78506  -0.76428  -0.76094  -0.69282  -0.67376
 Alpha  occ. eigenvalues --   -0.65165  -0.63186  -0.59731  -0.57683  -0.56267
 Alpha  occ. eigenvalues --   -0.53264  -0.52050  -0.51344  -0.49990  -0.48286
 Alpha  occ. eigenvalues --   -0.47802  -0.46820  -0.46382  -0.45965  -0.45390
 Alpha  occ. eigenvalues --   -0.43929  -0.43392  -0.42376  -0.42224  -0.40165
 Alpha  occ. eigenvalues --   -0.39829  -0.38844  -0.38132  -0.36840  -0.35021
 Alpha  occ. eigenvalues --   -0.34919  -0.33879  -0.32964  -0.29090  -0.28864
 Alpha  occ. eigenvalues --   -0.28395  -0.27882  -0.27284  -0.23114
 Alpha virt. eigenvalues --   -0.12202  -0.07791  -0.04509  -0.02442  -0.02167
 Alpha virt. eigenvalues --   -0.00715   0.00267   0.00679   0.01796   0.02266
 Alpha virt. eigenvalues --    0.02365   0.02671   0.03490   0.03508   0.04316

  Beta  occ. eigenvalues -- -101.57738-101.57706 -19.13249 -19.12927 -14.34027
  Beta  occ. eigenvalues --  -10.28631 -10.28343 -10.27367 -10.27268 -10.25329
  Beta  occ. eigenvalues --  -10.21984 -10.21841 -10.21580 -10.21445 -10.21047
  Beta  occ. eigenvalues --  -10.20582 -10.20043 -10.19611 -10.19092  -9.49197
  Beta  occ. eigenvalues --   -9.49165  -7.25673  -7.25642  -7.24688  -7.24654
  Beta  occ. eigenvalues --   -7.24616  -7.24585  -1.06604  -1.06120  -0.95067
  Beta  occ. eigenvalues --   -0.94040  -0.88292  -0.88108  -0.86540  -0.80642
  Beta  occ. eigenvalues --   -0.78506  -0.76428  -0.76094  -0.69282  -0.67376
  Beta  occ. eigenvalues --   -0.65165  -0.63186  -0.59731  -0.57683  -0.56267
  Beta  occ. eigenvalues --   -0.53264  -0.52050  -0.51344  -0.49990  -0.48286
  Beta  occ. eigenvalues --   -0.47802  -0.46820  -0.46382  -0.45965  -0.45390
  Beta  occ. eigenvalues --   -0.43929  -0.43392  -0.42376  -0.42224  -0.40165
  Beta  occ. eigenvalues --   -0.39829  -0.38844  -0.38132  -0.36840  -0.35021
  Beta  occ. eigenvalues --   -0.34919  -0.33879  -0.32964  -0.29090  -0.28864
  Beta  occ. eigenvalues --   -0.28395  -0.27882  -0.27284  -0.23114
  Beta virt. eigenvalues --   -0.12202  -0.07791  -0.04509  -0.02442  -0.02167
  Beta virt. eigenvalues --   -0.00715   0.00267   0.00679   0.01796   0.02266
  Beta virt. eigenvalues --    0.02365   0.02671   0.03490   0.03508   0.04316

 Mulliken charges and spin densities:
               1          2
     1  N   -0.416707   0.000000
     2  C    0.310621   0.000000
     3  C   -0.210488  -0.000000
     4  C   -0.502784   0.000000
     5  C    0.099919   0.000000
     6  C    0.361556  -0.000000
     7  C   -0.838915   0.000000
     8  O   -0.271082  -0.000000
     9  C   -0.453943  -0.000000
    10  C   -0.356776   0.000000
    11  C    0.474022   0.000000
    12  Cl   0.592202  -0.000000
    13  C    0.378633  -0.000000
    14  Cl   0.592933   0.000000
    15  C   -0.116145  -0.000000
    16  C   -0.127273  -0.000000
    17  C   -1.016428  -0.000000
    18  O   -0.299797   0.000000
    19  C    0.093276   0.000000
    20  H    0.335502  -0.000000
    21  H    0.317343   0.000000
    22  H    0.190708  -0.000000
    23  H    0.214590   0.000000
    24  H    0.178460   0.000000
    25  H    0.230692  -0.000000
    26  H    0.239881   0.000000
 Sum of Mulliken charges =   0.00000  -0.00000

 Dipole moment (field-independent basis, Debye):
    X=             -5.8596    Y=              0.7775    Z=              2.1910  Tot=              6.3040
 Quadrupole moment (field-independent basis, Debye-Ang):
   XX=           -107.5208   YY=           -125.1103   ZZ=           -128.6502
   XY=             -1.9697   XZ=             -5.0665   YZ=             -0.6877

  Exact polarizability: 471.133 -14.189 143.532   2.996  46.907 327.726
 Approx polarizability: 493.041 -14.153 171.240   2.763  62.313 416.087

                      1                      2                      3
                      A                      A                      A
 Frequencies --     31.2236                49.2758                85.5231
 Red. masses --      8.4651                12.7782                11.5911
 Frc consts  --      0.0049                 0.0183                 0.0500
 IR Inten    --      6.3855                 0.0370                10.2813

                      4                      5                      6
                      A                      A                      A
 Frequencies --    119.3721               138.2607               160.3237
 Red. masses --     10.0198                 9.5722                 2.9626
 Frc consts  --      0.0841                 0.1078                 0.0449
 IR Inten    --      0.0796                 0.2764                70.1663

                      7                      8                      9
                      A                      A                      A
 Frequencies --    194.8970               195.8211               225.2817
 Red. masses --      5.3998                26.6665                 1.4616
 Frc consts  --      0.1208                 0.6025                 0.0437
 IR Inten    --      4.5663                 0.2554               219.4290

                     10                     11                     12
                      A                      A                      A
 Frequencies --    231.8291               258.1116               280.5204
 Red. masses --      4.3077                 9.0623                10.9944
 Frc consts  --      0.1364                 0.3557                 0.5097
 IR Inten    --      6.7723                 0.0644                 0.1206

                     13                     14                     15
                      A                      A                      A
 Frequencies --    334.2492               334.4944               398.1753
 Red. masses --     11.7546                10.2278                 4.9642
 Frc consts  --      0.7737                 0.6742                 0.4637
 IR Inten    --      2.3769                 1.5487                10.9635

                     16                     17                     18
                      A                      A                      A
 Frequencies --    410.1962               442.8641               450.5943
 Red. masses --     11.0359                 3.2495                 4.8116
 Frc consts  --      1.0941                 0.3755                 0.5756
 IR Inten    --     16.5358                 4.5987                 1.7819

                     19                     20                     21
                      A                      A                      A
 Frequencies --    455.6421               469.2796               498.2365
 Red. masses --      5.4666                10.3284                 6.4883
 Frc consts  --      0.6687                 1.3401                 0.9490
 IR Inten    --      9.5550                35.1213                10.6271

                     22                     23                     24
                      A                      A                      A
 Frequencies --    542.7898               543.1213               580.0444
 Red. masses --      7.4139                 4.3363                 6.8054
 Frc consts  --      1.2869                 0.7536                 1.3491
 IR Inten    --     34.5928                13.6174                 1.8247

                     25                     26                     27
                      A                      A                      A
 Frequencies --    604.7458               625.0476               664.2626
 Red. masses --      6.9579                 1.0882                 6.7325
 Frc consts  --      1.4993                 0.2505                 1.7503
 IR Inten    --    133.4185                22.9865                11.0286

                     28                     29                     30
                      A                      A                      A
 Frequencies --    669.4074               693.9215               715.7493
 Red. masses --      5.2465                 7.5164                 3.0715
 Frc consts  --      1.3852                 2.1325                 0.9271
 IR Inten    --      2.8232                12.2434                20.0986

                     31                     32                     33
                      A                      A                      A
 Frequencies --    727.8457               766.6157               790.0850
 Red. masses --      7.4228                 4.2680                 3.2390
 Frc consts  --      2.3168                 1.4779                 1.1913
 IR Inten    --     12.9436                60.9256                 1.4004

                     34                     35                     36
                      A                      A                      A
 Frequencies --    827.6577               834.2670               904.9995
 Red. masses --      2.3503                 7.3648                 6.2684
 Frc consts  --      0.9486                 3.0201                 3.0248
 IR Inten    --     25.2170                32.4884                28.1669

                     37                     38                     39
                      A                      A                      A
 Frequencies --    911.8093               921.2308               938.7476
 Red. masses --      1.3947                 1.4430                 1.4754
 Frc consts  --      0.6832                 0.7215                 0.7660
 IR Inten    --      0.0982                 1.3772                34.3953

                     40                     41                     42
                      A                      A                      A
 Frequencies --    968.7235              1006.1972              1023.1592
 Red. masses --      8.8274                 1.3276                 2.1454
 Frc consts  --      4.8807                 0.7919                 1.3232
 IR Inten    --     64.8202                 0.4748                85.8542

                     43                     44                     45
                      A                      A                      A
 Frequencies --   1063.9538              1122.3561              1134.5222
 Red. masses --      2.7156                 1.6075                 2.2457
 Frc consts  --      1.8112                 1.1930                 1.7031
 IR Inten    --     29.4859                30.8185                37.7711

                     46                     47                     48
                      A                      A                      A
 Frequencies --   1152.2784              1192.8395              1205.9667
 Red. masses --      6.0960                 1.3274                 2.1248
 Frc consts  --      4.7688                 1.1128                 1.8207
 IR Inten    --      1.4838                55.4279                10.3068

                     49                     50                     51
                      A                      A                      A
 Frequencies --   1247.2440              1276.8821              1289.0927
 Red. masses --      1.2618                 5.2653                 3.1107
 Frc consts  --      1.1565                 5.0580                 3.0456
 IR Inten    --     12.6178              1981.9085               200.8778

                     52                     53                     54
                      A                      A                      A
 Frequencies --   1329.2945              1352.0705              1403.2984
 Red. masses --     11.3936                 3.7940                 6.1542
 Frc consts  --     11.8619                 4.0864                 7.1403
 IR Inten    --     16.8901                22.3604               110.5203

                     55                     56                     57
                      A                      A                      A
 Frequencies --   1405.5448              1467.2613              1478.1151
 Red. masses --      7.9236                 2.9385                 2.7594
 Frc consts  --      9.2228                 3.7273                 3.5521
 IR Inten    --     36.4853               133.6949                 0.8509

                     58                     59                     60
                      A                      A                      A
 Frequencies --   1483.9648              1565.8269              1587.7061
 Red. masses --      3.2663                 3.9050                10.2763
 Frc consts  --      4.2380                 5.6410                15.2626
 IR Inten    --     40.6179               525.0009                39.1792

                     61                     62                     63
                      A                      A                      A
 Frequencies --   1595.9205              1603.3545              1627.4297
 Red. masses --      1.9855                 5.7983                 3.6498
 Frc consts  --      2.9795                 8.7823                 5.6953
 IR Inten    --    211.3093               247.9912               411.1571

                     64                     65                     66
                      A                      A                      A
 Frequencies --   1655.7991              1694.5885              3172.0172
 Red. masses --      7.4686                11.5267                 1.0881
 Frc consts  --     12.0644                19.5022                 6.4507
 IR Inten    --    391.8652               305.6228                 8.5177

                     67                     68                     69
                      A                      A                      A
 Frequencies --   3188.4934              3212.6213              3213.6929
 Red. masses --      1.0940                 1.0927                 1.0914
 Frc consts  --      6.5530                 6.6447                 6.6411
 IR Inten    --     23.6852                 6.6307                 4.9869

                     70                     71                     72
                      A                      A                      A
 Frequencies --   3215.9071              3536.5110              3692.9790
 Red. masses --      1.0915                 1.0495                 1.1023
 Frc consts  --      6.6509                 7.7334                 8.8573
 IR Inten    --      8.1810               138.0746               166.0308

 - Thermochemistry -
 -------------------
 Temperature   298.150 Kelvin.  Pressure   1.00000 Atm.
 Atom     1 has atomic number  7 and mass  14.00307

 Molecular mass:   290.98538 amu.
 Principal axes and moments of inertia in atomic units:
                           1         2         3
     Eigenvalues --  2645.094269816.28195**********
           X            0.99896   0.01662   0.04255
           Y           -0.04525   0.23228   0.97160
           Z           -0.00626   0.97251  -0.23279
 This molecule is an asymmetric top.
 Rotational symmetry number  1.
 Warning -- assumption of classical behavior for rotation
           may cause significant error
 Rotational temperatures (Kelvin)      0.03275     0.00882     0.00695
 Rotational constants (GHZ):           0.68230     0.18385     0.14483
 Zero-point vibrational energy     461711.5 (Joules/Mol)
                                  110.35169 (Kcal/Mol)
 Warning -- explicit consideration of  25 degrees of freedom as
           vibrations may cause significant error
 Vibrational temperatures:     44.92    70.90   123.05   171.75   198.93
          (Kelvin)            230.67   280.41   281.74   324.13   333.55
                              371.37   403.61   480.91   481.26   572.89
                              590.18   637.18   648.30   655.57   675.19
                              716.85   780.95   781.43   834.55   870.09
                              899.30   955.73   963.13   998.40  1029.80
                             1047.21  1102.99  1136.76  1190.81  1200.32
                             1302.09  1311.89  1325.45  1350.65  1393.78
                             1447.69  1472.10  1530.79  1614.82  1632.32
                             1657.87  1716.23  1735.12  1794.51  1837.15
                             1854.72  1912.56  1945.33  2019.03  2022.27
                             2111.06  2126.68  2135.09  2252.88  2284.36
                             2296.17  2306.87  2341.51  2382.33  2438.13
                             4563.83  4587.53  4622.25  4623.79  4626.97
                             5088.25  5313.37

 Zero-point correction=                           0.175857 (Hartree/Particle)
 Thermal correction to Energy=                    0.191175
 Thermal correction to Enthalpy=                  0.192119
 Thermal correction to Gibbs Free Energy=         0.132439
 Sum of electronic and zero-point Energies=          -1663.411454
 Sum of electronic and thermal Energies=             -1663.396135
 Sum of electronic and thermal Enthalpies=           -1663.395191
 Sum of electronic and thermal Free Energies=        -1663.454871

                     E (Thermal)             CV                S
                      KCal/Mol        Cal/Mol-Kelvin    Cal/Mol-Kelvin
 Total                  119.964             59.385            125.608
 Electronic               0.000              0.000              0.000
 Translational            0.889              2.981             42.902
 Rotational               0.889              2.981             34.136
 Vibrational            118.187             53.423             48.570
 Vibration     1          0.594              1.983              5.750
 Vibration     2          0.595              1.978              4.846
 Vibration     3          0.601              1.959              3.760
 Vibration     4          0.609              1.933              3.111
 Vibration     5          0.614              1.915              2.828
 Vibration     6          0.622              1.891              2.546
 Vibration     7          0.636              1.847              2.181
 Vibration     8          0.636              1.846              2.172
 Vibration     9          0.650              1.803              1.916
 Vibration    10          0.653              1.792              1.865
 Vibration    11          0.667              1.749              1.675
 Vibration    12          0.680              1.710              1.530
 Vibration    13          0.716              1.607              1.239
 Vibration    14          0.716              1.607              1.238
 Vibration    15          0.764              1.474              0.969
 Vibration    16          0.774              1.448              0.926
 Vibration    17          0.802              1.377              0.818
 Vibration    18          0.809              1.360              0.794
 Vibration    19          0.814              1.348              0.779
 Vibration    20          0.826              1.318              0.740
 Vibration    21          0.854              1.254              0.663
 Vibration    22          0.898              1.155              0.559
 Vibration    23          0.898              1.155              0.559
 Vibration    24          0.937              1.074              0.485
 Vibration    25          0.963              1.022              0.442

                           ! Non-Optimized Parameters !
 Normal termination of Gaussian 16 at Sat Feb 10 17:02:14 2024.
