 Q-Chem 5.4, Q-Chem, Inc., Pleasanton, CA (2021)
 Q-Chem 5.4.0 for Intel X86 EM64T Linux

User input:
--------------------------------------------------------------
$molecule
-1 2
C                  5.8016610000     -5.1072710000      1.2556340000
C                  6.7931190000     -5.0418670000      0.3024560000
C                  6.6747450000     -4.1179530000     -0.7714830000
C                  4.6640740000     -4.2738940000      1.1912390000
C                  4.5461690000     -3.3502190000      0.1173200000
C                  5.5583270000     -3.2879110000     -0.8501150000
C                  3.6302140000     -4.3716770000      2.2227500000
C                  2.4904610000     -3.4795690000      2.0855530000
C                  2.3720880000     -2.5775760000      1.0399090000
C                  3.3816370000     -2.4581700000      0.0019130000
O                  3.7367690000     -5.1922100000      3.1750810000
O                  3.2817170000     -1.6426640000     -0.9499360000
C                  7.7004910000     -4.0476260000     -1.7611320000
N                  8.5439410000     -4.0050470000     -2.5554570000
H                  5.8651800000     -5.8016580000      2.0850880000
H                  7.6638260000     -5.6851900000      0.3587010000
H                  5.4452910000     -2.5758500000     -1.6586240000
C                  1.4226920000     -3.5768510000      3.1464740000
C                  1.1742350000     -1.6671750000      0.9306420000
H                  1.7006490000     -4.3411100000      3.8719300000
H                  0.4484970000     -3.8370410000      2.7148470000
H                  1.2891190000     -2.6233460000      3.6719760000
H                  0.2397400000     -2.2363790000      0.8532000000
H                  1.2752480000     -1.0396320000      0.0453210000
H                  1.0766140000     -1.0202380000      1.8110750000
$end
$rem
MAX_SCF_CYCLES=200
BASIS  =  6-311++G(d,p)
GUI  =  2
JOB_TYPE  =  SP
METHOD  =  B3LYP
SOLVENT_METHOD = PCM
$end
$pcm
theory = CPCM
$end
$solvent
dielectric 37.219
opticaldielectric 1.43
$end

--------------------------------------------------------------

             Standard Nuclear Orientation (Angstroms)
    I     Atom           X                Y                Z
 ----------------------------------------------------------------
    1      C       5.8016610000    -5.1072710000     1.2556340000
    2      C       6.7931190000    -5.0418670000     0.3024560000
    3      C       6.6747450000    -4.1179530000    -0.7714830000
    4      C       4.6640740000    -4.2738940000     1.1912390000
    5      C       4.5461690000    -3.3502190000     0.1173200000
    6      C       5.5583270000    -3.2879110000    -0.8501150000
    7      C       3.6302140000    -4.3716770000     2.2227500000
    8      C       2.4904610000    -3.4795690000     2.0855530000
    9      C       2.3720880000    -2.5775760000     1.0399090000
   10      C       3.3816370000    -2.4581700000     0.0019130000
   11      O       3.7367690000    -5.1922100000     3.1750810000
   12      O       3.2817170000    -1.6426640000    -0.9499360000
   13      C       7.7004910000    -4.0476260000    -1.7611320000
   14      N       8.5439410000    -4.0050470000    -2.5554570000
   15      H       5.8651800000    -5.8016580000     2.0850880000
   16      H       7.6638260000    -5.6851900000     0.3587010000
   17      H       5.4452910000    -2.5758500000    -1.6586240000
   18      C       1.4226920000    -3.5768510000     3.1464740000
   19      C       1.1742350000    -1.6671750000     0.9306420000
   20      H       1.7006490000    -4.3411100000     3.8719300000
   21      H       0.4484970000    -3.8370410000     2.7148470000
   22      H       1.2891190000    -2.6233460000     3.6719760000
   23      H       0.2397400000    -2.2363790000     0.8532000000
   24      H       1.2752480000    -1.0396320000     0.0453210000
   25      H       1.0766140000    -1.0202380000     1.8110750000
 ----------------------------------------------------------------

    9    -706.3427881126      4.50e-06  Convergence criterion met
 Total energy in the final basis set =     -706.3427881126

                    Orbital Energies (a.u.)
 --------------------------------------------------------------

 Alpha MOs
 -- Occupied --
-19.0819 -19.0798 -14.3218 -10.2281 -10.2247 -10.2245 -10.2150 -10.1919
-10.1894 -10.1828 -10.1819 -10.1794 -10.1748 -10.1732 -10.1528 -10.1528
 -1.0087  -1.0043  -0.9236  -0.8738  -0.8251  -0.7813  -0.7657  -0.7260
 -0.6902  -0.6693  -0.6242  -0.6050  -0.5673  -0.5414  -0.5128  -0.4823
 -0.4711  -0.4396  -0.4377  -0.4323  -0.4250  -0.4106  -0.4061  -0.3981
 -0.3892  -0.3875  -0.3862  -0.3829  -0.3722  -0.3695  -0.3523  -0.3479
 -0.3424  -0.3406  -0.2752  -0.2687  -0.2530  -0.2471  -0.2408  -0.1570

 Beta MOs
 -- Occupied --
-19.0762 -19.0735 -14.3214 -10.2266 -10.2248 -10.2227 -10.2145 -10.1922
-10.1887 -10.1817 -10.1811 -10.1795 -10.1740 -10.1720 -10.1529 -10.1529
 -0.9986  -0.9932  -0.9230  -0.8718  -0.8208  -0.7792  -0.7639  -0.7228
 -0.6879  -0.6641  -0.6223  -0.6021  -0.5653  -0.5384  -0.5107  -0.4801
 -0.4695  -0.4374  -0.4317  -0.4290  -0.4210  -0.4075  -0.4026  -0.3912
 -0.3878  -0.3854  -0.3823  -0.3787  -0.3691  -0.3523  -0.3512  -0.3461
 -0.3393  -0.3330  -0.2627  -0.2543  -0.2475  -0.2363  -0.2354

          Ground-State Mulliken Net Atomic Charges

     Atom                 Charge (a.u.)    Spin (a.u.)
  --------------------------------------------------------
      1 C                    -0.000633       0.017000
      2 C                    -0.685479       0.060031
      3 C                     1.396989       0.034965
      4 C                     0.147886       0.042427
      5 C                    -0.088105       0.032241
      6 C                     0.213811      -0.009034
      7 C                    -0.520485       0.114840
      8 C                     0.369103       0.054806
      9 C                     0.730693       0.104973
     10 C                    -0.603132       0.086867
     11 O                    -0.489242       0.231700
     12 O                    -0.474872       0.209863
     13 C                    -1.414825      -0.014112
     14 N                    -0.306179       0.019052
     15 H                     0.175118      -0.001785
     16 H                     0.225869      -0.003855
     17 H                     0.198996      -0.000161
     18 C                    -0.462485       0.006563
     19 C                    -0.431028       0.002105
     20 H                     0.182872      -0.001475
     21 H                     0.164099       0.002868
     22 H                     0.164333       0.002906
     23 H                     0.164235       0.004251
     24 H                     0.178413      -0.001267
     25 H                     0.164049       0.004232
  --------------------------------------------------------
  Sum of atomic charges =    -1.000000

                    Cartesian Multipole Moments
 -----------------------------------------------------------------
    Charge (ESU x 10^10)
                -4.8032
    Dipole Moment (Debye)
         X     -23.7070      Y      17.0053      Z      -0.0868
       Tot      29.1755
    Quadrupole Moments (Debye-Ang)
        XX    -236.1226     XY      84.8153     YY    -169.7522
        XZ      17.9010     YZ      15.5788     ZZ    -132.4827

 Total job time:  66.80s(wall), 392.82s(cpu)
        *  Thank you very much for using Q-Chem.  Have a nice day.  *
