 Gaussian 16, Revision A.03,
 Gaussian 16:  ES64L-G16RevA.03 25-Dec-2016

 --------------------------------------
 #P UB3LYP/6-311++G(d,p) nosym opt freq
 --------------------------------------

 -------
 Radical
 -------
 Symbolic Z-matrix:
 Charge = -1 Multiplicity = 2

 SCF Done:  E(UB3LYP) =  -706.259448986     A.U. after   21 cycles
 SCF Done:  E(UB3LYP) =  -706.266606504     A.U. after   18 cycles
 SCF Done:  E(UB3LYP) =  -706.267361266     A.U. after   17 cycles
 SCF Done:  E(UB3LYP) =  -706.267334868     A.U. after   16 cycles
 SCF Done:  E(UB3LYP) =  -706.267394494     A.U. after   16 cycles
 SCF Done:  E(UB3LYP) =  -706.267455346     A.U. after   15 cycles
 SCF Done:  E(UB3LYP) =  -706.267476496     A.U. after   14 cycles
 SCF Done:  E(UB3LYP) =  -706.267529384     A.U. after   15 cycles
 SCF Done:  E(UB3LYP) =  -706.267655393     A.U. after   16 cycles
 SCF Done:  E(UB3LYP) =  -706.267836111     A.U. after   16 cycles
 SCF Done:  E(UB3LYP) =  -706.267842215     A.U. after   14 cycles
 SCF Done:  E(UB3LYP) =  -706.267974853     A.U. after   14 cycles
 SCF Done:  E(UB3LYP) =  -706.267959405     A.U. after   14 cycles
 SCF Done:  E(UB3LYP) =  -706.267986010     A.U. after   12 cycles
 SCF Done:  E(UB3LYP) =  -706.267982619     A.U. after   12 cycles
 SCF Done:  E(UB3LYP) =  -706.267991984     A.U. after   12 cycles
 SCF Done:  E(UB3LYP) =  -706.267992699     A.U. after   12 cycles
 SCF Done:  E(UB3LYP) =  -706.267996066     A.U. after   12 cycles
 SCF Done:  E(UB3LYP) =  -706.267996209     A.U. after   10 cycles
 Optimization completed.
    -- Stationary point found.
 Normal termination of Gaussian 16 at Tue Jan 23 22:32:25 2024.

 ----------------------------------------------------------------------
 #P Geom=AllCheck Guess=TCheck SCRF=Check GenChk UB3LYP/6-311++G(d,p) F
 req
 ----------------------------------------------------------------------

 Structure from the checkpoint file:  "228-rad.chk"
 -------
 Radical
 -------
 Charge = -1 Multiplicity = 2

                          Input orientation:
 ---------------------------------------------------------------------
 Center     Atomic      Atomic             Coordinates (Angstroms)
 Number     Number       Type             X           Y           Z
 ---------------------------------------------------------------------
      1          6           0        5.801661   -5.107271    1.255634
      2          6           0        6.793119   -5.041867    0.302456
      3          6           0        6.674745   -4.117953   -0.771483
      4          6           0        4.664074   -4.273894    1.191239
      5          6           0        4.546169   -3.350219    0.117320
      6          6           0        5.558327   -3.287911   -0.850115
      7          6           0        3.630214   -4.371677    2.222750
      8          6           0        2.490461   -3.479569    2.085553
      9          6           0        2.372088   -2.577576    1.039909
     10          6           0        3.381637   -2.458170    0.001913
     11          8           0        3.736769   -5.192210    3.175081
     12          8           0        3.281717   -1.642664   -0.949936
     13          6           0        7.700491   -4.047626   -1.761132
     14          7           0        8.543941   -4.005047   -2.555457
     15          1           0        5.865180   -5.801658    2.085088
     16          1           0        7.663826   -5.685190    0.358701
     17          1           0        5.445291   -2.575850   -1.658624
     18          6           0        1.422692   -3.576851    3.146474
     19          6           0        1.174235   -1.667175    0.930642
     20          1           0        1.700649   -4.341110    3.871930
     21          1           0        0.448497   -3.837041    2.714847
     22          1           0        1.289119   -2.623346    3.671976
     23          1           0        0.239740   -2.236379    0.853200
     24          1           0        1.275248   -1.039632    0.045321
     25          1           0        1.076614   -1.020238    1.811075
 ---------------------------------------------------------------------

 SCF Done:  E(UB3LYP) =  -706.267996209     A.U. after    1 cycles

 Alpha  occ. eigenvalues --  -18.95745 -18.95539 -14.20563 -10.10631 -10.10612
 Alpha  occ. eigenvalues --  -10.10268 -10.10104 -10.07916 -10.07691 -10.06691
 Alpha  occ. eigenvalues --  -10.06547 -10.06479 -10.05959 -10.05798 -10.05122
 Alpha  occ. eigenvalues --  -10.05109  -0.88370  -0.87921  -0.80697  -0.75838
 Alpha  occ. eigenvalues --   -0.71066  -0.66742  -0.65177  -0.61760  -0.57887
 Alpha  occ. eigenvalues --   -0.55511  -0.51152  -0.49233  -0.45301  -0.42577
 Alpha  occ. eigenvalues --   -0.39926  -0.36692  -0.35762  -0.32958  -0.32433
 Alpha  occ. eigenvalues --   -0.31325  -0.30771  -0.29854  -0.29185  -0.28523
 Alpha  occ. eigenvalues --   -0.27949  -0.27664  -0.27136  -0.26643  -0.25768
 Alpha  occ. eigenvalues --   -0.25275  -0.23803  -0.23418  -0.22517  -0.22470
 Alpha  occ. eigenvalues --   -0.15629  -0.15220  -0.13363  -0.12725  -0.11677
 Alpha  occ. eigenvalues --   -0.03548
 Alpha virt. eigenvalues --    0.05719   0.07967   0.08098   0.08938   0.10284
 Alpha virt. eigenvalues --    0.11200   0.11303   0.12029   0.13191   0.13295
 Alpha virt. eigenvalues --    0.14172   0.14255   0.14551   0.14586   0.15513

  Beta  occ. eigenvalues --  -18.95121 -18.94847 -14.20521 -10.10623 -10.10529
  Beta  occ. eigenvalues --  -10.10146 -10.10044 -10.07844 -10.07730 -10.06707
  Beta  occ. eigenvalues --  -10.06433 -10.06387 -10.05869 -10.05669 -10.05131
  Beta  occ. eigenvalues --  -10.05120  -0.87300  -0.86730  -0.80631  -0.75643
  Beta  occ. eigenvalues --   -0.70646  -0.66520  -0.65012  -0.61498  -0.57680
  Beta  occ. eigenvalues --   -0.54963  -0.50966  -0.48920  -0.45129  -0.42301
  Beta  occ. eigenvalues --   -0.39728  -0.36491  -0.35606  -0.32488  -0.32413
  Beta  occ. eigenvalues --   -0.30993  -0.30516  -0.29417  -0.28912  -0.28172
  Beta  occ. eigenvalues --   -0.27808  -0.27398  -0.26547  -0.26182  -0.25719
  Beta  occ. eigenvalues --   -0.23676  -0.23219  -0.22927  -0.22356  -0.21534
  Beta  occ. eigenvalues --   -0.14714  -0.13442  -0.12117  -0.11920  -0.11069
  Beta virt. eigenvalues --    0.02828   0.06494   0.07974   0.08936   0.09055
  Beta virt. eigenvalues --    0.10288   0.11212   0.11302   0.12037   0.13190
  Beta virt. eigenvalues --    0.13317   0.14249   0.14264   0.14563   0.14643

 Mulliken charges and spin densities:
               1          2
     1  C    0.031799   0.007301
     2  C   -0.637360   0.061781
     3  C    1.392962   0.037948
     4  C    0.231804   0.057433
     5  C   -0.033107   0.045930
     6  C    0.212146  -0.017294
     7  C   -0.748010   0.075750
     8  C    0.447213   0.064615
     9  C    0.810198   0.112130
    10  C   -0.788624   0.050235
    11  O   -0.381436   0.255074
    12  O   -0.368159   0.229784
    13  C   -1.424322  -0.016142
    14  N   -0.249843   0.021850
    15  H    0.160107  -0.001605
    16  H    0.154528  -0.004182
    17  H    0.185224   0.000031
    18  C   -0.459031   0.006602
    19  C   -0.424072   0.001660
    20  H    0.202603  -0.001953
    21  H    0.121592   0.003000
    22  H    0.121824   0.003029
    23  H    0.122207   0.004352
    24  H    0.197675  -0.001654
    25  H    0.122083   0.004324
 Sum of Mulliken charges =  -1.00000   1.00000

 Dipole moment (field-independent basis, Debye):
    X=            -23.4111    Y=             17.1499    Z=             -0.5295  Tot=             29.0255
 Quadrupole moment (field-independent basis, Debye-Ang):
   XX=           -240.5361   YY=           -170.9335   ZZ=           -131.0058
   XY=             87.4676   XZ=             17.8788   YZ=             14.0704

  Exact polarizability: 256.055 -52.702 153.856 -75.867 -31.305 199.491
 Approx polarizability: 373.725 -77.966 264.036 -99.318 -80.478 336.978

                      1                      2                      3
                      A                      A                      A
 Frequencies --     54.1097                73.9129                91.1230
 Red. masses --      5.6960                 1.0835                 5.3823
 Frc consts  --      0.0098                 0.0035                 0.0263
 IR Inten    --      0.4484                 0.2570                10.8460

                      4                      5                      6
                      A                      A                      A
 Frequencies --    122.7625               124.7166               127.9692
 Red. masses --      9.7157                 2.8837                 1.1405
 Frc consts  --      0.0863                 0.0264                 0.0110
 IR Inten    --      2.6000                 2.1393                 0.0406

                      7                      8                      9
                      A                      A                      A
 Frequencies --    156.8515               204.7291               261.0192
 Red. masses --      4.8673                 5.7158                 5.3358
 Frc consts  --      0.0706                 0.1412                 0.2142
 IR Inten    --      2.3594                 0.0887                 7.7941

                     10                     11                     12
                      A                      A                      A
 Frequencies --    295.4412               310.8044               340.4698
 Red. masses --      4.3154                 3.0963                 5.6355
 Frc consts  --      0.2219                 0.1762                 0.3849
 IR Inten    --      0.0178                 0.2543                 1.7474

                     13                     14                     15
                      A                      A                      A
 Frequencies --    344.6496               411.8633               411.9687
 Red. masses --      4.4723                 6.6113                 7.7282
 Frc consts  --      0.3130                 0.6608                 0.7728
 IR Inten    --      0.3766                 0.2300                 2.8825

                     16                     17                     18
                      A                      A                      A
 Frequencies --    428.7127               443.0462               495.1067
 Red. masses --      6.4095                 3.4169                 5.1757
 Frc consts  --      0.6941                 0.3952                 0.7475
 IR Inten    --      8.2165                 0.6961                 1.0109

                     19                     20                     21
                      A                      A                      A
 Frequencies --    500.6892               557.3676               580.9677
 Red. masses --     10.2344                 6.6696                 7.2974
 Frc consts  --      1.5116                 1.2208                 1.4512
 IR Inten    --      0.4391                 5.8431                 3.3109

                     22                     23                     24
                      A                      A                      A
 Frequencies --    594.4588               661.1228               681.4984
 Red. masses --      5.3985                 4.7992                 3.9448
 Frc consts  --      1.1240                 1.2359                 1.0795
 IR Inten    --     10.6857                 5.1416                10.4391

                     25                     26                     27
                      A                      A                      A
 Frequencies --    688.9372               722.2092               737.0286
 Red. masses --      6.9751                 6.4890                 4.6807
 Frc consts  --      1.9506                 1.9941                 1.4981
 IR Inten    --      4.0331                 9.1071                 9.2691

                     28                     29                     30
                      A                      A                      A
 Frequencies --    788.0133               832.8298               872.1041
 Red. masses --      3.9580                 1.6536                 3.9678
 Frc consts  --      1.4481                 0.6757                 1.7780
 IR Inten    --      0.9719                20.7943                 2.9108

                     31                     32                     33
                      A                      A                      A
 Frequencies --    920.5587               952.2097               987.9593
 Red. masses --      2.9500                 1.4006                 1.3075
 Frc consts  --      1.4729                 0.7482                 0.7519
 IR Inten    --      0.5914                 9.1958                 1.2735

                     34                     35                     36
                      A                      A                      A
 Frequencies --    998.0466              1021.8900              1027.1985
 Red. masses --      2.6670                 1.9142                 1.4193
 Frc consts  --      1.5652                 1.1778                 0.8824
 IR Inten    --      8.4283                 0.7808                 0.0519

                     37                     38                     39
                      A                      A                      A
 Frequencies --   1056.6705              1104.9636              1125.2520
 Red. masses --      1.5329                 2.7240                 2.0100
 Frc consts  --      1.0084                 1.9595                 1.4995
 IR Inten    --      0.0010                21.7787                34.1516

                     40                     41                     42
                      A                      A                      A
 Frequencies --   1143.2383              1195.5845              1217.0839
 Red. masses --      1.7098                 4.8289                 3.4516
 Frc consts  --      1.3166                 4.0669                 3.0124
 IR Inten    --      3.4559                35.7899                65.1139

                     43                     44                     45
                      A                      A                      A
 Frequencies --   1225.6837              1272.8422              1350.7585
 Red. masses --      3.4417                 1.8361                 4.7964
 Frc consts  --      3.0464                 1.7527                 5.1560
 IR Inten    --     96.9335                15.3073                51.5379

                     46                     47                     48
                      A                      A                      A
 Frequencies --   1368.2818              1388.4935              1390.1931
 Red. masses --      1.8498                 2.5040                 1.2915
 Frc consts  --      2.0404                 2.8442                 1.4706
 IR Inten    --     18.5317                88.6422                 5.4033

                     49                     50                     51
                      A                      A                      A
 Frequencies --   1438.6763              1473.1951              1480.5916
 Red. masses --      2.9772                 1.4198                 1.5861
 Frc consts  --      3.6307                 1.8155                 2.0486
 IR Inten    --     25.8265                19.5305                53.0546

                     52                     53                     54
                      A                      A                      A
 Frequencies --   1489.7085              1491.6553              1506.2947
 Red. masses --      1.6120                 1.0484                 8.4580
 Frc consts  --      2.1077                 1.3744                11.3068
 IR Inten    --     27.1388                 0.0255               237.1357

                     55                     56                     57
                      A                      A                      A
 Frequencies --   1507.1810              1529.2724              1533.0248
 Red. masses --      1.0488                 5.9365                 5.2075
 Frc consts  --      1.4038                 8.1799                 7.2108
 IR Inten    --     14.5155                77.3910               219.3142

                     58                     59                     60
                      A                      A                      A
 Frequencies --   1593.7912              1626.0290              2292.8631
 Red. masses --      8.1798                 7.0842                12.6778
 Frc consts  --     12.2421                11.0356                39.2691
 IR Inten    --     60.8002                56.5285               373.1171

                     61                     62                     63
                      A                      A                      A
 Frequencies --   2995.2416              2997.0515              3029.1793
 Red. masses --      1.0414                 1.0403                 1.0989
 Frc consts  --      5.5045                 5.5055                 5.9410
 IR Inten    --     21.7562               180.2282                71.4836

                     64                     65                     66
                      A                      A                      A
 Frequencies --   3031.7341              3116.4337              3117.3826
 Red. masses --      1.0988                 1.0946                 1.0949
 Frc consts  --      5.9505                 6.2637                 6.2690
 IR Inten    --      7.3814                 4.7943                10.2550

                     67                     68                     69
                      A                      A                      A
 Frequencies --   3169.5902              3190.8611              3194.0448
 Red. masses --      1.0876                 1.0933                 1.0909
 Frc consts  --      6.4378                 6.5588                 6.5570
 IR Inten    --      5.8755                10.6798                 4.8058

 - Thermochemistry -
 -------------------
 Temperature   298.150 Kelvin.  Pressure   1.00000 Atm.
 Atom     1 has atomic number  6 and mass  12.00000

 Molecular mass:   211.06333 amu.
 Principal axes and moments of inertia in atomic units:
                           1         2         3
     Eigenvalues --  1735.165034936.684756649.56228
           X            0.83489  -0.27605   0.47619
           Y           -0.16194   0.70366   0.69183
           Z           -0.52606  -0.65472   0.54278
 This molecule is an asymmetric top.
 Rotational symmetry number  1.
 Warning -- assumption of classical behavior for rotation
           may cause significant error
 Rotational temperatures (Kelvin)      0.04992     0.01754     0.01303
 Rotational constants (GHZ):           1.04010     0.36558     0.27141
 Zero-point vibrational energy     481300.7 (Joules/Mol)
                                  115.03363 (Kcal/Mol)
 Warning -- explicit consideration of  22 degrees of freedom as
           vibrations may cause significant error
 Vibrational temperatures:     77.85   106.34   131.11   176.63   179.44
          (Kelvin)            184.12   225.67   294.56   375.55   425.07
                              447.18   489.86   495.87   592.58   592.73
                              616.82   637.44   712.35   720.38   801.93
                              835.88   855.29   951.21   980.52   991.23
                             1039.10  1060.42  1133.78  1198.26  1254.76
                             1324.48  1370.02  1421.45  1435.97  1470.27
                             1477.91  1520.31  1589.80  1618.99  1644.86
                             1720.18  1751.11  1763.49  1831.34  1943.44
                             1968.65  1997.73  2000.18  2069.93  2119.60
                             2130.24  2143.36  2146.16  2167.22  2168.50
                             2200.28  2205.68  2293.11  2339.49  3298.92
                             4309.48  4312.09  4358.31  4361.99  4483.85
                             4485.22  4560.33  4590.94  4595.52

 Zero-point correction=                           0.183318 (Hartree/Particle)
 Thermal correction to Energy=                    0.197184
 Thermal correction to Enthalpy=                  0.198128
 Thermal correction to Gibbs Free Energy=         0.141923
 Sum of electronic and zero-point Energies=           -706.084678
 Sum of electronic and thermal Energies=              -706.070812
 Sum of electronic and thermal Enthalpies=            -706.069868
 Sum of electronic and thermal Free Energies=         -706.126073

                     E (Thermal)             CV                S
                      KCal/Mol        Cal/Mol-Kelvin    Cal/Mol-Kelvin
 Total                  123.735             52.518            118.293
 Electronic               0.000              0.000              1.377
 Translational            0.889              2.981             41.945
 Rotational               0.889              2.981             32.410
 Vibrational            121.957             46.556             42.560
 Vibration     1          0.596              1.976              4.661
 Vibration     2          0.599              1.966              4.046
 Vibration     3          0.602              1.955              3.636
 Vibration     4          0.610              1.930              3.056
 Vibration     5          0.610              1.928              3.026
 Vibration     6          0.611              1.925              2.976
 Vibration     7          0.621              1.895              2.587
 Vibration     8          0.640              1.833              2.090
 Vibration     9          0.669              1.744              1.655
 Vibration    10          0.690              1.682              1.443
 Vibration    11          0.700              1.653              1.358
 Vibration    12          0.720              1.595              1.210
 Vibration    13          0.723              1.586              1.191
 Vibration    14          0.776              1.444              0.920
 Vibration    15          0.776              1.444              0.920
 Vibration    16          0.790              1.408              0.863
 Vibration    17          0.803              1.376              0.817
 Vibration    18          0.851              1.261              0.670
 Vibration    19          0.856              1.248              0.656
 Vibration    20          0.913              1.124              0.529
 Vibration    21          0.938              1.072              0.484
 Vibration    22          0.952              1.044              0.459

 Optimization completed.
    -- Stationary point found.
 Normal termination of Gaussian 16 at Tue Jan 23 23:22:28 2024.
