 Gaussian 16, Revision A.03,
 Gaussian 16:  ES64L-G16RevA.03 25-Dec-2016

 ----------------------------------------------------------------
 #P UB3LYP/6-311++G(d,p) SCRF=(PCM,Solvent=n,n-DiMethylFormamide)
 ----------------------------------------------------------------

 -------
 Reduced
 -------
 Symbolic Z-matrix:
 Charge = -2 Multiplicity = 1

                         Standard orientation:
 ---------------------------------------------------------------------
 Center     Atomic      Atomic             Coordinates (Angstroms)
 Number     Number       Type             X           Y           Z
 ---------------------------------------------------------------------
      1          8           0       -4.142870   -1.524895   -0.002186
      2          6           0       -3.096738   -0.843568    0.000323
      3          7           0       -3.061281    0.511990    0.008811
      4          6           0       -1.893323    1.394211    0.001855
      5          8           0       -2.172644    2.619473    0.003644
      6          6           0       -0.650952    0.724208   -0.006190
      7          7           0        0.572757    1.421446   -0.005244
      8          6           0        1.682203    0.683164   -0.001689
      9          6           0        2.985696    1.290009   -0.003294
     10          6           0        4.163931    0.536841    0.000213
     11          6           0        4.138789   -0.858059    0.004638
     12          6           0        2.864225   -1.493604    0.004092
     13          6           0        1.677343   -0.778674    0.000035
     14          7           0        0.445729   -1.459652    0.000078
     15          6           0       -0.623616   -0.696945   -0.001708
     16          7           0       -1.846980   -1.402672   -0.004463
     17          1           0       -3.944778    0.997547    0.001909
     18          1           0        3.023375    2.376620   -0.005404
     19          1           0        5.121794    1.059649   -0.000434
     20          1           0        5.054514   -1.443997    0.005576
     21          1           0        2.790674   -2.580427    0.005915
     22          1           0       -1.778393   -2.409302   -0.003143
 ---------------------------------------------------------------------

 SCF Done:  E(UB3LYP) =  -754.619479869     A.U. after   17 cycles

 The electronic state is 1-A.
 Alpha  occ. eigenvalues --  -19.08148 -19.05293 -14.33828 -14.32854 -14.26055
 Alpha  occ. eigenvalues --  -14.23352 -10.29405 -10.23019 -10.22733 -10.16992
 Alpha  occ. eigenvalues --  -10.16558 -10.15571 -10.14228 -10.13443 -10.12926
 Alpha  occ. eigenvalues --  -10.12337  -1.04401  -0.98983  -0.95364  -0.90620
 Alpha  occ. eigenvalues --   -0.88018  -0.83840  -0.79925  -0.72925  -0.70549
 Alpha  occ. eigenvalues --   -0.65839  -0.63937  -0.61103  -0.56605  -0.55572
 Alpha  occ. eigenvalues --   -0.52467  -0.52108  -0.47895  -0.46089  -0.45115
 Alpha  occ. eigenvalues --   -0.44235  -0.42863  -0.41256  -0.40153  -0.39242
 Alpha  occ. eigenvalues --   -0.38620  -0.38287  -0.36437  -0.33257  -0.33210
 Alpha  occ. eigenvalues --   -0.32309  -0.28608  -0.27931  -0.26985  -0.26651
 Alpha  occ. eigenvalues --   -0.25907  -0.23508  -0.21224  -0.20900  -0.19847
 Alpha  occ. eigenvalues --   -0.09732
 Alpha virt. eigenvalues --    0.00149   0.00220   0.00857   0.01663   0.02486
 Alpha virt. eigenvalues --    0.02734   0.03088   0.03618   0.04537   0.04962
 Alpha virt. eigenvalues --    0.05269   0.05387   0.05841   0.06773   0.07009

  Beta  occ. eigenvalues --  -19.08148 -19.05293 -14.33828 -14.32854 -14.26055
  Beta  occ. eigenvalues --  -14.23352 -10.29405 -10.23019 -10.22733 -10.16992
  Beta  occ. eigenvalues --  -10.16558 -10.15571 -10.14228 -10.13443 -10.12926
  Beta  occ. eigenvalues --  -10.12337  -1.04401  -0.98983  -0.95364  -0.90620
  Beta  occ. eigenvalues --   -0.88018  -0.83840  -0.79925  -0.72925  -0.70549
  Beta  occ. eigenvalues --   -0.65839  -0.63937  -0.61103  -0.56605  -0.55572
  Beta  occ. eigenvalues --   -0.52467  -0.52108  -0.47895  -0.46089  -0.45115
  Beta  occ. eigenvalues --   -0.44235  -0.42863  -0.41256  -0.40153  -0.39242
  Beta  occ. eigenvalues --   -0.38620  -0.38287  -0.36437  -0.33257  -0.33210
  Beta  occ. eigenvalues --   -0.32309  -0.28608  -0.27931  -0.26985  -0.26651
  Beta  occ. eigenvalues --   -0.25907  -0.23508  -0.21224  -0.20900  -0.19847
  Beta  occ. eigenvalues --   -0.09732
  Beta virt. eigenvalues --    0.00149   0.00220   0.00857   0.01663   0.02486
  Beta virt. eigenvalues --    0.02734   0.03088   0.03618   0.04537   0.04962
  Beta virt. eigenvalues --    0.05269   0.05387   0.05841   0.06773   0.07009

 Mulliken charges and spin densities:
               1          2
     1  O   -0.512716  -0.000000
     2  C    0.410013   0.000000
     3  N   -0.470841   0.000000
     4  C    0.118697   0.000000
     5  O   -0.597267  -0.000000
     6  C   -0.001608  -0.000000
     7  N   -0.402376   0.000000
     8  C   -0.005272  -0.000000
     9  C   -0.316855   0.000000
    10  C   -0.358307  -0.000000
    11  C   -0.359834   0.000000
    12  C   -0.276007  -0.000000
    13  C    0.118495  -0.000000
    14  N   -0.341293   0.000000
    15  C    0.210089   0.000000
    16  N   -0.469437  -0.000000
    17  H    0.381079  -0.000000
    18  H    0.129614   0.000000
    19  H    0.141834  -0.000000
    20  H    0.140739  -0.000000
    21  H    0.129886   0.000000
    22  H    0.331366   0.000000
 Sum of Mulliken charges =  -2.00000  -0.00000

 Dipole moment (field-independent basis, Debye):
    X=              1.1197    Y=             -5.9309    Z=              0.0009  Tot=              6.0357
 Quadrupole moment (field-independent basis, Debye-Ang):
   XX=           -165.6917   YY=           -137.8646   ZZ=           -102.7907
   XY=              1.0112   XZ=              0.0280   YZ=             -0.0209

 Normal termination of Gaussian 16 at Sat Jan 13 19:20:55 2024.
