 Q-Chem 5.4, Q-Chem, Inc., Pleasanton, CA (2021)
 Q-Chem 5.4.0 for Intel X86 EM64T Linux

User input:
--------------------------------------------------------------
$molecule
-1 2
O                  0.1205500000      0.4167540000      2.6812970000
C                  0.0803760000      0.2188350000      1.4063370000
C                 -1.1875010000      0.1125640000      0.7089210000
C                 -2.4303350000      0.2207290000      1.3924380000
C                 -3.6257800000      0.1124510000      0.6853270000
C                 -3.6261310000     -0.1027880000     -0.6984950000
C                 -2.4173240000     -0.2111970000     -1.3846150000
C                 -1.2258710000     -0.1027880000     -0.6768710000
O                 -0.0679670000     -0.2212740000     -1.4287950000
C                  1.1677880000     -0.1258810000     -0.8021320000
C                  2.2821550000     -0.2527930000     -1.6085600000
C                  3.5717420000     -0.1670710000     -1.0423320000
C                  3.6977460000      0.0459060000      0.3324170000
C                  2.5723690000      0.1730480000      1.1398090000
C                  1.2618420000      0.0910990000      0.5969820000
O                 -2.4361110000      0.4292980000      2.7329950000
H                 -4.5594830000      0.1984820000      1.2298670000
H                 -4.5540270000     -0.1875580000     -1.2518420000
O                 -2.4065710000     -0.4239330000     -2.7524400000
H                  2.1436440000     -0.4175150000     -2.6716680000
H                  4.4477040000     -0.2664230000     -1.6736610000
H                  4.6861120000      0.1134080000      0.7783720000
H                  2.6553560000      0.3384100000      2.2069080000
H                 -1.4585220000      0.4674960000      2.9881820000
H                 -1.4788860000     -0.4664160000     -3.0166140000
$end

$rem
BASIS  =  6-311++G(d,p)
GUI  =  2
JOB_TYPE  =  SP
METHOD  =  B3LYP
SCF_CONVERGENCE  = 8
SOLVENT_METHOD = sm12
$end

$smx
solvent dimethylformamide
charges CM5
$end

--------------------------------------------------------------

             Standard Nuclear Orientation (Angstroms)
    I     Atom           X                Y                Z
 ----------------------------------------------------------------
    1      O       0.1205500000     0.4167540000     2.6812970000
    2      C       0.0803760000     0.2188350000     1.4063370000
    3      C      -1.1875010000     0.1125640000     0.7089210000
    4      C      -2.4303350000     0.2207290000     1.3924380000
    5      C      -3.6257800000     0.1124510000     0.6853270000
    6      C      -3.6261310000    -0.1027880000    -0.6984950000
    7      C      -2.4173240000    -0.2111970000    -1.3846150000
    8      C      -1.2258710000    -0.1027880000    -0.6768710000
    9      O      -0.0679670000    -0.2212740000    -1.4287950000
   10      C       1.1677880000    -0.1258810000    -0.8021320000
   11      C       2.2821550000    -0.2527930000    -1.6085600000
   12      C       3.5717420000    -0.1670710000    -1.0423320000
   13      C       3.6977460000     0.0459060000     0.3324170000
   14      C       2.5723690000     0.1730480000     1.1398090000
   15      C       1.2618420000     0.0910990000     0.5969820000
   16      O      -2.4361110000     0.4292980000     2.7329950000
   17      H      -4.5594830000     0.1984820000     1.2298670000
   18      H      -4.5540270000    -0.1875580000    -1.2518420000
   19      O      -2.4065710000    -0.4239330000    -2.7524400000
   20      H       2.1436440000    -0.4175150000    -2.6716680000
   21      H       4.4477040000    -0.2664230000    -1.6736610000
   22      H       4.6861120000     0.1134080000     0.7783720000
   23      H       2.6553560000     0.3384100000     2.2069080000
   24      H      -1.4585220000     0.4674960000     2.9881820000
   25      H      -1.4788860000    -0.4664160000    -3.0166140000
 ----------------------------------------------------------------

   18    -801.3726668369      5.35e-09  Convergence criterion met
 Total energy in the final basis set =     -801.4600575355

                    Orbital Energies (a.u.)
 --------------------------------------------------------------

 Alpha MOs
 -- Occupied --
-19.1865 -19.1544 -19.1229 -19.0711 -10.2456 -10.2406 -10.2304 -10.2291
-10.2167 -10.1805 -10.1798 -10.1778 -10.1767 -10.1763 -10.1758 -10.1714
-10.1709  -1.1041  -1.0579  -1.0429  -0.9843  -0.8628  -0.8520  -0.7818
 -0.7703  -0.7482  -0.7274  -0.6635  -0.6553  -0.6058  -0.6009  -0.5638
 -0.5596  -0.5455  -0.5241  -0.4871  -0.4809  -0.4745  -0.4699  -0.4407
 -0.4331  -0.4215  -0.4117  -0.4107  -0.4074  -0.4014  -0.3981  -0.3773
 -0.3713  -0.3647  -0.3572  -0.3522  -0.3402  -0.3080  -0.2689  -0.2625
 -0.2473  -0.2451  -0.2052  -0.1170

 Beta MOs
 -- Occupied --
-19.1853 -19.1546 -19.1221 -19.0658 -10.2445 -10.2391 -10.2310 -10.2275
-10.2122 -10.1816 -10.1804 -10.1771 -10.1766 -10.1759 -10.1734 -10.1721
-10.1682  -1.1019  -1.0580  -1.0408  -0.9746  -0.8605  -0.8497  -0.7777
 -0.7676  -0.7456  -0.7261  -0.6601  -0.6512  -0.6039  -0.5981  -0.5614
 -0.5578  -0.5432  -0.5233  -0.4863  -0.4791  -0.4730  -0.4636  -0.4389
 -0.4317  -0.4196  -0.4102  -0.4062  -0.4047  -0.3969  -0.3938  -0.3763
 -0.3633  -0.3607  -0.3563  -0.3386  -0.3369  -0.3030  -0.2616  -0.2481
 -0.2410  -0.2356  -0.2010

          Ground-State Mulliken Net Atomic Charges

     Atom                 Charge (a.u.)    Spin (a.u.)
  --------------------------------------------------------
      1 O                    -0.464621       0.195382
      2 C                    -1.388941       0.268414
      3 C                    -0.520691      -0.087169
      4 C                    -0.798259       0.130566
      5 C                     0.585116      -0.064037
      6 C                     0.872496       0.150735
      7 C                    -0.150233      -0.050663
      8 C                    -0.409832       0.091231
      9 O                    -0.037285       0.027259
     10 C                    -1.020978       0.071882
     11 C                     0.546752      -0.020236
     12 C                     0.596876       0.220403
     13 C                     0.447069      -0.079114
     14 C                    -0.197789       0.245190
     15 C                    -0.702062      -0.079552
     16 O                    -0.349307       0.022333
     17 H                     0.235446       0.003560
     18 H                     0.305652      -0.011512
     19 O                    -0.187697      -0.002865
     20 H                     0.255090      -0.000702
     21 H                     0.329472      -0.015854
     22 H                     0.281180       0.005222
     23 H                     0.144832      -0.015480
     24 H                     0.312497      -0.004948
     25 H                     0.315216      -0.000046
  --------------------------------------------------------
  Sum of atomic charges =    -1.000000

                    Cartesian Multipole Moments
 -----------------------------------------------------------------
    Charge (ESU x 10^10)
                -4.8032
    Dipole Moment (Debye)
         X       2.7996      Y      -0.9220      Z      -5.8942
       Tot       6.5901
    Quadrupole Moments (Debye-Ang)
        XX    -123.7420     XY       0.1243     YY    -107.0379
        XZ       0.6076     YZ      -2.9661     ZZ    -125.6687

 Total job time:  598.54s(wall), 4367.89s(cpu)
        *  Thank you very much for using Q-Chem.  Have a nice day.  *
