 Gaussian 16, Revision A.03,
 Gaussian 16:  ES64L-G16RevA.03 25-Dec-2016

 --------------------------------------
 #P UB3LYP/6-311++G(d,p) nosym opt freq
 --------------------------------------

 -------
 Radical
 -------
 Symbolic Z-matrix:
 Charge = -1 Multiplicity = 2

 SCF Done:  E(UB3LYP) =  -801.374907287     A.U. after   21 cycles
 SCF Done:  E(UB3LYP) =  -801.374907250     A.U. after   10 cycles
 SCF Done:  E(UB3LYP) =  -801.374907558     A.U. after   10 cycles
 SCF Done:  E(UB3LYP) =  -801.374907683     A.U. after   10 cycles
 Optimization completed.
    -- Stationary point found.
 Normal termination of Gaussian 16 at Tue Jan  9 20:45:03 2024.

 ----------------------------------------------------------------------
 #P Geom=AllCheck Guess=TCheck SCRF=Check GenChk UB3LYP/6-311++G(d,p) F
 req
 ----------------------------------------------------------------------

 Structure from the checkpoint file:  "336-rad.chk"
 -------
 Radical
 -------
 Charge = -1 Multiplicity = 2

                          Input orientation:
 ---------------------------------------------------------------------
 Center     Atomic      Atomic             Coordinates (Angstroms)
 Number     Number       Type             X           Y           Z
 ---------------------------------------------------------------------
      1          8           0        0.120550    0.416754    2.681297
      2          6           0        0.080376    0.218835    1.406337
      3          6           0       -1.187501    0.112564    0.708921
      4          6           0       -2.430335    0.220729    1.392438
      5          6           0       -3.625780    0.112451    0.685327
      6          6           0       -3.626131   -0.102788   -0.698495
      7          6           0       -2.417324   -0.211197   -1.384615
      8          6           0       -1.225871   -0.102788   -0.676871
      9          8           0       -0.067967   -0.221274   -1.428795
     10          6           0        1.167788   -0.125881   -0.802132
     11          6           0        2.282155   -0.252793   -1.608560
     12          6           0        3.571742   -0.167071   -1.042332
     13          6           0        3.697746    0.045906    0.332417
     14          6           0        2.572369    0.173048    1.139809
     15          6           0        1.261842    0.091099    0.596982
     16          8           0       -2.436111    0.429298    2.732995
     17          1           0       -4.559483    0.198482    1.229867
     18          1           0       -4.554027   -0.187558   -1.251842
     19          8           0       -2.406571   -0.423933   -2.752440
     20          1           0        2.143644   -0.417515   -2.671668
     21          1           0        4.447704   -0.266423   -1.673661
     22          1           0        4.686112    0.113408    0.778372
     23          1           0        2.655356    0.338410    2.206908
     24          1           0       -1.458522    0.467496    2.988182
     25          1           0       -1.478886   -0.466416   -3.016614
 ---------------------------------------------------------------------

 SCF Done:  E(UB3LYP) =  -801.374907683     A.U. after    1 cycles

 Alpha  occ. eigenvalues --  -19.06104 -19.03716 -18.99347 -18.94048 -10.12005
 Alpha  occ. eigenvalues --  -10.11477 -10.10651 -10.10164 -10.08754 -10.05377
 Alpha  occ. eigenvalues --  -10.05342 -10.05273 -10.05246 -10.05201 -10.05130
 Alpha  occ. eigenvalues --  -10.04545 -10.04350  -0.97914  -0.93976  -0.91356
 Alpha  occ. eigenvalues --   -0.85363  -0.73755  -0.72633  -0.65536  -0.64568
 Alpha  occ. eigenvalues --   -0.62261  -0.60260  -0.53822  -0.52978  -0.48223
 Alpha  occ. eigenvalues --   -0.47520  -0.43825  -0.43602  -0.42045  -0.39875
 Alpha  occ. eigenvalues --   -0.36376  -0.35685  -0.34941  -0.34424  -0.31650
 Alpha  occ. eigenvalues --   -0.30800  -0.29733  -0.28700  -0.28586  -0.28083
 Alpha  occ. eigenvalues --   -0.27526  -0.27454  -0.25588  -0.24526  -0.24027
 Alpha  occ. eigenvalues --   -0.23145  -0.22522  -0.21278  -0.18392  -0.14268
 Alpha  occ. eigenvalues --   -0.13538  -0.11987  -0.11414  -0.07991   0.01165
 Alpha virt. eigenvalues --    0.07992   0.08924   0.09454   0.09617   0.10389
 Alpha virt. eigenvalues --    0.11084   0.11398   0.12682   0.13163   0.13767
 Alpha virt. eigenvalues --    0.14813   0.15289   0.15306   0.16562   0.17172

  Beta  occ. eigenvalues --  -19.05991 -19.03732 -18.99270 -18.93517 -10.11911
  Beta  occ. eigenvalues --  -10.11326 -10.10715 -10.10013 -10.08336 -10.05370
  Beta  occ. eigenvalues --  -10.05308 -10.05268 -10.05188 -10.05177 -10.05032
  Beta  occ. eigenvalues --  -10.04615 -10.04075  -0.97725  -0.93985  -0.91147
  Beta  occ. eigenvalues --   -0.84392  -0.73521  -0.72405  -0.65126  -0.64291
  Beta  occ. eigenvalues --   -0.61986  -0.60133  -0.53505  -0.52554  -0.48037
  Beta  occ. eigenvalues --   -0.47248  -0.43596  -0.43410  -0.41809  -0.39790
  Beta  occ. eigenvalues --   -0.36297  -0.35505  -0.34789  -0.33848  -0.31472
  Beta  occ. eigenvalues --   -0.30668  -0.29595  -0.28627  -0.28296  -0.27765
  Beta  occ. eigenvalues --   -0.27258  -0.26769  -0.25470  -0.23877  -0.23506
  Beta  occ. eigenvalues --   -0.23049  -0.21108  -0.20838  -0.17878  -0.13563
  Beta  occ. eigenvalues --   -0.12080  -0.10989  -0.10722  -0.07596
  Beta virt. eigenvalues --    0.07108   0.07973   0.08909   0.09436   0.10302
  Beta virt. eigenvalues --    0.10368   0.11396   0.12001   0.12674   0.13158
  Beta virt. eigenvalues --    0.14259   0.14835   0.15302   0.15396   0.17073

 Mulliken charges and spin densities:
               1          2
     1  O   -0.471448   0.196814
     2  C   -0.162508   0.252955
     3  C    1.278456  -0.080937
     4  C   -0.158685   0.125625
     5  C    0.047039  -0.061574
     6  C    0.033564   0.150408
     7  C   -1.106306  -0.050292
     8  C   -0.339468   0.087752
     9  O   -0.171643   0.024629
    10  C   -1.263505   0.058962
    11  C   -0.382556  -0.009226
    12  C   -0.431577   0.228541
    13  C   -0.210656  -0.082749
    14  C    0.158715   0.246240
    15  C    1.394363  -0.064313
    16  O   -0.364887   0.021921
    17  H    0.148031   0.003385
    18  H    0.151064  -0.011947
    19  O   -0.285825  -0.002240
    20  H    0.123194  -0.001550
    21  H    0.118072  -0.017427
    22  H    0.114411   0.005551
    23  H    0.176513  -0.015519
    24  H    0.334868  -0.004926
    25  H    0.270772  -0.000084
 Sum of Mulliken charges =  -1.00000   1.00000

 Dipole moment (field-independent basis, Debye):
    X=              2.4018    Y=             -0.7234    Z=             -4.6196  Tot=              5.2567
 Quadrupole moment (field-independent basis, Debye-Ang):
   XX=           -128.9145   YY=           -106.7848   ZZ=           -126.2336
   XY=              0.1510   XZ=              0.7359   YZ=             -3.1008

  Exact polarizability: 357.606  -2.924  97.347 -16.181  16.033 197.907
 Approx polarizability: 544.734  -5.135 152.417 -29.055  32.470 356.066

                      1                      2                      3
                      A                      A                      A
 Frequencies --     50.5956                89.6160               147.7269
 Red. masses --      6.8805                 5.7267                 7.0505
 Frc consts  --      0.0104                 0.0271                 0.0907
 IR Inten    --      0.4420                 0.0016                 0.5934

                      4                      5                      6
                      A                      A                      A
 Frequencies --    153.3847               189.6739               249.1769
 Red. masses --      7.3261                 5.7826                 5.3176
 Frc consts  --      0.1016                 0.1226                 0.1945
 IR Inten    --      0.0001                 0.4085                 0.0040

                      7                      8                      9
                      A                      A                      A
 Frequencies --    250.3571               294.9313               340.9691
 Red. masses --      7.7481                 6.1914                 6.5661
 Frc consts  --      0.2861                 0.3173                 0.4498
 IR Inten    --      0.2851                 4.1099                11.2449

                     10                     11                     12
                      A                      A                      A
 Frequencies --    354.0689               364.2273               387.5838
 Red. masses --      1.7063                 3.1666                 2.7830
 Frc consts  --      0.1260                 0.2475                 0.2463
 IR Inten    --     50.7245                25.4865                17.9940

                     13                     14                     15
                      A                      A                      A
 Frequencies --    393.0150               436.1088               475.1901
 Red. masses --      9.7373                 7.0708                10.5221
 Frc consts  --      0.8861                 0.7923                 1.3999
 IR Inten    --      6.8244                 5.2617                 0.1688

                     16                     17                     18
                      A                      A                      A
 Frequencies --    480.1025               518.1800               525.2489
 Red. masses --      4.1461                 5.8178                 4.3545
 Frc consts  --      0.5631                 0.9204                 0.7078
 IR Inten    --      0.0003                13.9672                 3.1807

                     19                     20                     21
                      A                      A                      A
 Frequencies --    537.4835               576.6404               612.7761
 Red. masses --      9.2201                 4.4533                 4.4231
 Frc consts  --      1.5693                 0.8725                 0.9785
 IR Inten    --     10.5915                19.0231                 0.1592

                     22                     23                     24
                      A                      A                      A
 Frequencies --    640.0859               645.1106               665.1346
 Red. masses --      7.8643                 5.9450                 6.3713
 Frc consts  --      1.8984                 1.4577                 1.6607
 IR Inten    --      4.2824                13.2217                 2.3171

                     25                     26                     27
                      A                      A                      A
 Frequencies --    667.7199               695.2740               709.6438
 Red. masses --      6.6549                 1.5145                 2.9405
 Frc consts  --      1.7481                 0.4313                 0.8725
 IR Inten    --      7.6957                58.4036                14.6153

                     28                     29                     30
                      A                      A                      A
 Frequencies --    750.6688               765.8549               810.0821
 Red. masses --      7.8487                 1.5929                 1.4077
 Frc consts  --      2.6058                 0.5505                 0.5443
 IR Inten    --     25.3525                42.2067                 3.8213

                     31                     32                     33
                      A                      A                      A
 Frequencies --    834.6687               843.2568               866.9956
 Red. masses --      6.9480                 1.3362                 1.2739
 Frc consts  --      2.8519                 0.5598                 0.5642
 IR Inten    --     86.7275                15.2919                 3.8581

                     34                     35                     36
                      A                      A                      A
 Frequencies --    895.9384               930.8765               948.8884
 Red. masses --      6.8547                 1.2481                 1.0507
 Frc consts  --      3.2419                 0.6372                 0.5574
 IR Inten    --     23.1331                 1.3749                69.4273

                     37                     38                     39
                      A                      A                      A
 Frequencies --    995.1448              1023.7929              1053.0473
 Red. masses --      5.9161                 2.9429                 2.0247
 Frc consts  --      3.4519                 1.8174                 1.3228
 IR Inten    --     66.4563                17.2726                75.7461

                     40                     41                     42
                      A                      A                      A
 Frequencies --   1097.0416              1145.6422              1155.2813
 Red. masses --      2.0072                 1.4822                 1.2080
 Frc consts  --      1.4232                 1.1462                 0.9499
 IR Inten    --     62.4577                27.4710                 1.2532

                     43                     44                     45
                      A                      A                      A
 Frequencies --   1168.9412              1212.9272              1229.2575
 Red. masses --      2.4489                 4.1818                 2.2277
 Frc consts  --      1.9715                 3.6248                 1.9833
 IR Inten    --     82.9345               209.6482                97.1660

                     46                     47                     48
                      A                      A                      A
 Frequencies --   1262.9270              1269.6752              1296.2812
 Red. masses --      2.0858                 2.2391                 4.7117
 Frc consts  --      1.9601                 2.1267                 4.6647
 IR Inten    --     15.8862                66.2065                99.9922

                     49                     50                     51
                      A                      A                      A
 Frequencies --   1311.7297              1355.8528              1369.9430
 Red. masses --      5.7856                 4.1023                 2.8438
 Frc consts  --      5.8653                 4.4433                 3.1446
 IR Inten    --    401.5418                16.6035               126.4079

                     52                     53                     54
                      A                      A                      A
 Frequencies --   1415.8295              1434.2896              1462.0542
 Red. masses --      3.9147                 4.3642                 2.5152
 Frc consts  --      4.6234                 5.2897                 3.1678
 IR Inten    --    179.6743                27.2485                67.9636

                     55                     56                     57
                      A                      A                      A
 Frequencies --   1481.0708              1520.6745              1543.4045
 Red. masses --      2.9201                 3.6700                 3.8214
 Frc consts  --      3.7740                 5.0002                 5.3633
 IR Inten    --     33.8315               539.3724               154.4305

                     58                     59                     60
                      A                      A                      A
 Frequencies --   1565.8892              1591.9386              1630.3137
 Red. masses --      4.2263                 3.3220                 3.7775
 Frc consts  --      6.1057                 4.9602                 5.9156
 IR Inten    --    101.5785                56.1582                70.2929

                     61                     62                     63
                      A                      A                      A
 Frequencies --   1668.2367              2904.1275              3136.4230
 Red. masses --      3.7660                 1.0744                 1.0856
 Frc consts  --      6.1751                 5.3389                 6.2918
 IR Inten    --      5.2881               446.8059                36.6026

                     64                     65                     66
                      A                      A                      A
 Frequencies --   3158.1909              3166.2593              3175.3608
 Red. masses --      1.0877                 1.0867                 1.0942
 Frc consts  --      6.3922                 6.4188                 6.5002
 IR Inten    --     28.8008                26.8238                31.7581

                     67                     68                     69
                      A                      A                      A
 Frequencies --   3184.6970              3191.9331              3790.8323
 Red. masses --      1.0935                 1.0910                 1.0652
 Frc consts  --      6.5342                 6.5492                 9.0190
 IR Inten    --     16.9299                 6.5013                34.9058

 - Thermochemistry -
 -------------------
 Temperature   298.150 Kelvin.  Pressure   1.00000 Atm.
 Atom     1 has atomic number  8 and mass  15.99491

 Molecular mass:   228.04226 amu.
 Principal axes and moments of inertia in atomic units:
                           1         2         3
     Eigenvalues --  2150.788344470.937926621.72614
           X            0.99882   0.04864   0.00155
           Y           -0.00900   0.15332   0.98814
           Z           -0.04783   0.98698  -0.15357
 This molecule is an asymmetric top.
 Rotational symmetry number  1.
 Warning -- assumption of classical behavior for rotation
           may cause significant error
 Rotational temperatures (Kelvin)      0.04027     0.01937     0.01308
 Rotational constants (GHZ):           0.83911     0.40366     0.27255
 Zero-point vibrational energy     466940.0 (Joules/Mol)
                                  111.60133 (Kcal/Mol)
 Warning -- explicit consideration of  21 degrees of freedom as
           vibrations may cause significant error
 Vibrational temperatures:     72.80   128.94   212.55   220.69   272.90
          (Kelvin)            358.51   360.21   424.34   490.58   509.43
                              524.04   557.65   565.46   627.46   683.69
                              690.76   745.55   755.72   773.32   829.66
                              881.65   920.94   928.17   956.98   960.70
                             1000.34  1021.02  1080.04  1101.89  1165.53
                             1200.90  1213.26  1247.41  1289.06  1339.32
                             1365.24  1431.79  1473.01  1515.10  1578.40
                             1648.32  1662.19  1681.85  1745.13  1768.63
                             1817.07  1826.78  1865.06  1887.29  1950.77
                             1971.04  2037.06  2063.62  2103.57  2130.93
                             2187.91  2220.61  2252.97  2290.44  2345.66
                             2400.22  4178.39  4512.61  4543.93  4555.54
                             4568.64  4582.07  4592.48  5454.16

 Zero-point correction=                           0.177848 (Hartree/Particle)
 Thermal correction to Energy=                    0.190626
 Thermal correction to Enthalpy=                  0.191570
 Thermal correction to Gibbs Free Energy=         0.138402
 Sum of electronic and zero-point Energies=           -801.197060
 Sum of electronic and thermal Energies=              -801.184282
 Sum of electronic and thermal Enthalpies=            -801.183338
 Sum of electronic and thermal Free Energies=         -801.236506

                     E (Thermal)             CV                S
                      KCal/Mol        Cal/Mol-Kelvin    Cal/Mol-Kelvin
 Total                  119.619             52.616            111.901
 Electronic               0.000              0.000              1.377
 Translational            0.889              2.981             42.175
 Rotational               0.889              2.981             32.521
 Vibrational            117.842             46.654             35.828
 Vibration     1          0.595              1.977              4.794
 Vibration     2          0.602              1.957              3.668
 Vibration     3          0.617              1.905              2.701
 Vibration     4          0.619              1.899              2.630
 Vibration     5          0.633              1.854              2.231
 Vibration     6          0.662              1.764              1.736
 Vibration     7          0.663              1.762              1.728
 Vibration     8          0.689              1.683              1.446
 Vibration     9          0.720              1.594              1.208
 Vibration    10          0.730              1.567              1.148
 Vibration    11          0.738              1.546              1.104
 Vibration    12          0.756              1.497              1.009
 Vibration    13          0.760              1.485              0.989
 Vibration    14          0.797              1.391              0.839
 Vibration    15          0.832              1.305              0.723
 Vibration    16          0.836              1.294              0.710
 Vibration    17          0.873              1.210              0.614
 Vibration    18          0.880              1.194              0.598
 Vibration    19          0.893              1.167              0.571
 Vibration    20          0.933              1.082              0.492
 Vibration    21          0.972              1.005              0.428

 Optimization completed.
    -- Stationary point found.
 Normal termination of Gaussian 16 at Tue Jan  9 21:36:18 2024.
