 Gaussian 16, Revision A.03,
 Gaussian 16:  ES64L-G16RevA.03 25-Dec-2016

 ----------------------------------------------------------------------
 #P UB3LYP/6-311++G(d,p) nosym opt freq SCRF=(PCM,Solvent=n,n-DiMethylF
 ormamide)
 ----------------------------------------------------------------------

 -------
 Radical
 -------
 Symbolic Z-matrix:
 Charge = -1 Multiplicity = 2

 SCF Done:  E(UB3LYP) =  -2015.52049021     A.U. after   23 cycles
 SCF Done:  E(UB3LYP) =  -2015.52136264     A.U. after   16 cycles
 SCF Done:  E(UB3LYP) =  -2015.52169976     A.U. after   16 cycles
 SCF Done:  E(UB3LYP) =  -2015.52169654     A.U. after   16 cycles
 SCF Done:  E(UB3LYP) =  -2015.52173122     A.U. after   16 cycles
 SCF Done:  E(UB3LYP) =  -2015.52180681     A.U. after   16 cycles
 SCF Done:  E(UB3LYP) =  -2015.52183114     A.U. after   13 cycles
 SCF Done:  E(UB3LYP) =  -2015.52184922     A.U. after   14 cycles
 SCF Done:  E(UB3LYP) =  -2015.52186594     A.U. after   13 cycles
 SCF Done:  E(UB3LYP) =  -2015.52187743     A.U. after   15 cycles
 SCF Done:  E(UB3LYP) =  -2015.52187820     A.U. after   11 cycles
 SCF Done:  E(UB3LYP) =  -2015.52188194     A.U. after   13 cycles
 SCF Done:  E(UB3LYP) =  -2015.52188284     A.U. after   12 cycles
 SCF Done:  E(UB3LYP) =  -2015.52188330     A.U. after   11 cycles
 SCF Done:  E(UB3LYP) =  -2015.52188342     A.U. after   10 cycles
 SCF Done:  E(UB3LYP) =  -2015.52188349     A.U. after   10 cycles
 Optimization completed.
    -- Stationary point found.
 Normal termination of Gaussian 16 at Sun Feb 11 00:27:29 2024.

 ----------------------------------------------------------------------
 #P Geom=AllCheck Guess=TCheck SCRF=Check GenChk UB3LYP/6-311++G(d,p) F
 req
 ----------------------------------------------------------------------

 Structure from the checkpoint file:  "217-rad.chk"
 -------
 Radical
 -------
 Charge = -1 Multiplicity = 2

                          Input orientation:
 ---------------------------------------------------------------------
 Center     Atomic      Atomic             Coordinates (Angstroms)
 Number     Number       Type             X           Y           Z
 ---------------------------------------------------------------------
      1          6           0        5.020122   -2.095068    0.543166
      2          6           0        5.765273   -1.413863   -0.396665
      3          6           0        5.161735   -0.731975   -1.476550
      4          6           0        3.617654   -2.118417    0.440255
      5          6           0        2.986100   -1.440697   -0.642294
      6          6           0        3.790032   -0.755861   -1.583923
      7          6           0        2.849255   -2.843400    1.455943
      8          6           0        1.393135   -2.832044    1.290327
      9          6           0        0.762432   -2.154883    0.206895
     10          6           0        1.534217   -1.433195   -0.801634
     11          6           0        0.600587   -3.511813    2.232454
     12          6           0       -0.648878   -2.181809    0.110895
     13          6           0       -1.420483   -2.845702    1.037040
     14          8           0        3.403531   -3.437309    2.407599
     15          8           0        0.976169   -0.834840   -1.759331
     16          1           0        5.492378   -2.612228    1.367665
     17         16           0        7.533482   -1.401372   -0.247646
     18          1           0       -2.500123   -2.852336    0.960878
     19          1           0        3.296583   -0.242061   -2.398821
     20          1           0        1.086666   -4.022197    3.053137
     21          1           0       -1.114485   -1.659240   -0.714803
     22          6           0       -0.772577   -3.511444    2.101071
     23         16           0       -1.751275   -4.379561    3.299986
     24          8           0       -0.952751   -4.701048    4.483369
     25          8           0       -3.036809   -3.706023    3.498942
     26          8           0       -2.019665   -5.755784    2.455686
     27          6           0       -2.927497   -6.725656    3.052448
     28          1           0       -2.538100   -7.068411    4.011561
     29          1           0       -2.955170   -7.548810    2.343233
     30          1           0       -3.920448   -6.290892    3.166832
     31          1           0        5.767608   -0.196965   -2.196411
     32          8           0        7.942815   -1.875456    1.074856
     33          8           0        8.081815   -0.128703   -0.722659
     34          8           0        7.885017   -2.554405   -1.354608
     35          6           0        9.292225   -2.755581   -1.670842
     36          1           0        9.840347   -3.064325   -0.780188
     37          1           0        9.716304   -1.845242   -2.094419
     38          1           0        9.296567   -3.553392   -2.408977
 ---------------------------------------------------------------------

 SCF Done:  E(UB3LYP) =  -2015.52188349     A.U. after    2 cycles

 Alpha  occ. eigenvalues --  -89.09277 -89.09273 -19.18328 -19.18324 -19.13960
 Alpha  occ. eigenvalues --  -19.13952 -19.13903 -19.13898 -19.09576 -19.09033
 Alpha  occ. eigenvalues --  -10.24767 -10.23857 -10.23549 -10.23548 -10.22589
 Alpha  occ. eigenvalues --  -10.22589 -10.20382 -10.20380 -10.20103 -10.20102
 Alpha  occ. eigenvalues --  -10.19618 -10.19616 -10.19542 -10.19539 -10.19013
 Alpha  occ. eigenvalues --  -10.19012  -8.15365  -8.15360  -6.11742  -6.11738
 Alpha  occ. eigenvalues --   -6.11568  -6.11564  -6.11412  -6.11408  -1.16042
 Alpha  occ. eigenvalues --   -1.16038  -1.05275  -1.05266  -1.03015  -1.03013
 Alpha  occ. eigenvalues --   -1.02388  -1.01509  -0.89117  -0.88474  -0.82416
 Alpha  occ. eigenvalues --   -0.79571  -0.78205  -0.77421  -0.75222  -0.73955
 Alpha  occ. eigenvalues --   -0.69682  -0.67820  -0.66865  -0.62696  -0.62690
 Alpha  occ. eigenvalues --   -0.60648  -0.58262  -0.56950  -0.56876  -0.53636
 Alpha  occ. eigenvalues --   -0.53239  -0.52209  -0.51421  -0.50499  -0.49800
 Alpha  occ. eigenvalues --   -0.48840  -0.48227  -0.46766  -0.46350  -0.46152
 Alpha  occ. eigenvalues --   -0.46067  -0.45190  -0.44814  -0.44261  -0.43803
 Alpha  occ. eigenvalues --   -0.43796  -0.43016  -0.41538  -0.41295  -0.40997
 Alpha  occ. eigenvalues --   -0.39791  -0.39656  -0.39112  -0.37325  -0.36991
 Alpha  occ. eigenvalues --   -0.36352  -0.36122  -0.36115  -0.35552  -0.35403
 Alpha  occ. eigenvalues --   -0.33996  -0.33989  -0.33788  -0.33766  -0.30895
 Alpha  occ. eigenvalues --   -0.30879  -0.28978  -0.28374  -0.27858  -0.27489
 Alpha  occ. eigenvalues --   -0.26319  -0.25417  -0.16255
 Alpha virt. eigenvalues --   -0.07908  -0.06401  -0.02587  -0.01003  -0.00512
 Alpha virt. eigenvalues --   -0.00368   0.00821   0.01260   0.01357   0.02084
 Alpha virt. eigenvalues --    0.02103   0.02912   0.02970   0.03430   0.03471

  Beta  occ. eigenvalues --  -89.09277 -89.09273 -19.18324 -19.18320 -19.13954
  Beta  occ. eigenvalues --  -19.13947 -19.13900 -19.13895 -19.09075 -19.08381
  Beta  occ. eigenvalues --  -10.24663 -10.23702 -10.23547 -10.23545 -10.22525
  Beta  occ. eigenvalues --  -10.22525 -10.20418 -10.20416 -10.20038 -10.20038
  Beta  occ. eigenvalues --  -10.19516 -10.19514 -10.19454 -10.19451 -10.19014
  Beta  occ. eigenvalues --  -10.19013  -8.15364  -8.15360  -6.11739  -6.11735
  Beta  occ. eigenvalues --   -6.11568  -6.11564  -6.11414  -6.11410  -1.16030
  Beta  occ. eigenvalues --   -1.16025  -1.05265  -1.05256  -1.03006  -1.03005
  Beta  occ. eigenvalues --   -1.01528  -1.00373  -0.88882  -0.88357  -0.82031
  Beta  occ. eigenvalues --   -0.79430  -0.77980  -0.77297  -0.75093  -0.73875
  Beta  occ. eigenvalues --   -0.69161  -0.67577  -0.66708  -0.62569  -0.62567
  Beta  occ. eigenvalues --   -0.60578  -0.58110  -0.56818  -0.56750  -0.53573
  Beta  occ. eigenvalues --   -0.53159  -0.52110  -0.51324  -0.50366  -0.49771
  Beta  occ. eigenvalues --   -0.48713  -0.48142  -0.46691  -0.46315  -0.46121
  Beta  occ. eigenvalues --   -0.46049  -0.45165  -0.44794  -0.43812  -0.43691
  Beta  occ. eigenvalues --   -0.42870  -0.42569  -0.41290  -0.41268  -0.40853
  Beta  occ. eigenvalues --   -0.39603  -0.38871  -0.37376  -0.37252  -0.36334
  Beta  occ. eigenvalues --   -0.36142  -0.36098  -0.36002  -0.35533  -0.35198
  Beta  occ. eigenvalues --   -0.33987  -0.33980  -0.33725  -0.33477  -0.30874
  Beta  occ. eigenvalues --   -0.30857  -0.28024  -0.26959  -0.26892  -0.26670
  Beta  occ. eigenvalues --   -0.25819  -0.24844
  Beta virt. eigenvalues --   -0.10425  -0.07159  -0.05417  -0.02349  -0.00951
  Beta virt. eigenvalues --   -0.00503   0.00112   0.00920   0.01289   0.01412
  Beta virt. eigenvalues --    0.02098   0.02197   0.02955   0.02978   0.03501

 Mulliken charges and spin densities:
               1          2
     1  C    0.191631  -0.018247
     2  C   -0.938604   0.032893
     3  C   -0.386330   0.050404
     4  C    0.430888   0.055110
     5  C    0.498444   0.061712
     6  C   -0.123555   0.025722
     7  C   -0.943563   0.057673
     8  C    0.405898   0.054270
     9  C    0.487346   0.060483
    10  C   -0.422353   0.096995
    11  C    0.185793  -0.018233
    12  C   -0.117412   0.025300
    13  C   -0.392205   0.050292
    14  O   -0.384486   0.185371
    15  O   -0.421920   0.243411
    16  H    0.229180   0.000760
    17  S    0.397208   0.006224
    18  H    0.235910  -0.003725
    19  H    0.178866  -0.001619
    20  H    0.228805   0.000739
    21  H    0.178548  -0.001654
    22  C   -0.916694   0.033114
    23  S    0.380708   0.005897
    24  O   -0.198625   0.001759
    25  O   -0.245717  -0.001662
    26  O   -0.058835  -0.000646
    27  C   -0.147943   0.000848
    28  H    0.179010   0.000018
    29  H    0.190194   0.000200
    30  H    0.176245   0.000034
    31  H    0.236519  -0.003749
    32  O   -0.194552   0.001688
    33  O   -0.248876  -0.001706
    34  O   -0.062673  -0.000743
    35  C   -0.153013   0.000822
    36  H    0.179687   0.000013
    37  H    0.176380   0.000027
    38  H    0.190096   0.000205
 Sum of Mulliken charges =  -1.00000   1.00000

 Dipole moment (field-independent basis, Debye):
    X=            -12.3381    Y=              7.5699    Z=             -8.7254  Tot=             16.9016
 Quadrupole moment (field-independent basis, Debye-Ang):
   XX=           -232.1023   YY=           -177.8652   ZZ=           -210.7720
   XY=             16.4591   XZ=            -27.6060   YZ=             32.9214

  Exact polarizability: 646.073  79.033 307.375 -78.997-124.708 390.585
 Approx polarizability: 631.015  47.696 346.993 -34.350-137.936 453.550

                      1                      2                      3
                      A                      A                      A
 Frequencies --     15.9437                18.8619                29.7119
 Red. masses --      6.0988                 6.0830                 7.0618
 Frc consts  --      0.0009                 0.0013                 0.0037
 IR Inten    --      3.1782                 2.6056                 4.6214

                      4                      5                      6
                      A                      A                      A
 Frequencies --     46.5251                50.7562                54.7980
 Red. masses --      4.9361                 3.3974                 2.9472
 Frc consts  --      0.0063                 0.0052                 0.0052
 IR Inten    --      2.6890                 4.3143                 0.7492

                      7                      8                      9
                      A                      A                      A
 Frequencies --     72.4946                79.6223               116.3607
 Red. masses --      6.9558                 7.6137                 3.7405
 Frc consts  --      0.0215                 0.0284                 0.0298
 IR Inten    --      6.3895                 6.8506                 0.0209

                     10                     11                     12
                      A                      A                      A
 Frequencies --    129.1572               130.2408               142.1288
 Red. masses --      3.5274                 5.2087                 1.4036
 Frc consts  --      0.0347                 0.0521                 0.0167
 IR Inten    --      7.6572                 1.7302                 1.7398

                     13                     14                     15
                      A                      A                      A
 Frequencies --    145.9963               157.4559               186.7919
 Red. masses --      1.2613                 7.4679                11.8714
 Frc consts  --      0.0158                 0.1091                 0.2440
 IR Inten    --      1.2260                 9.2151                 1.9114

                     16                     17                     18
                      A                      A                      A
 Frequencies --    191.9989               220.1799               241.9349
 Red. masses --      5.3723                 9.3678                 4.9890
 Frc consts  --      0.1167                 0.2676                 0.1721
 IR Inten    --      6.2591                11.3297                21.5082

                     19                     20                     21
                      A                      A                      A
 Frequencies --    250.3164               259.6701               270.1878
 Red. masses --     10.2956                 5.5457                10.6700
 Frc consts  --      0.3801                 0.2203                 0.4589
 IR Inten    --      4.2484                26.8649                 9.4336

                     22                     23                     24
                      A                      A                      A
 Frequencies --    325.3751               348.7436               365.6019
 Red. masses --      5.9976                 5.8047                 7.2913
 Frc consts  --      0.3741                 0.4160                 0.5742
 IR Inten    --      2.8971                 1.4564                36.1576

                     25                     26                     27
                      A                      A                      A
 Frequencies --    370.8356               392.5911               417.4639
 Red. masses --      7.3759                10.6310                 3.4580
 Frc consts  --      0.5976                 0.9654                 0.3551
 IR Inten    --      0.2611                 9.1331                 1.1569

                     28                     29                     30
                      A                      A                      A
 Frequencies --    436.2811               450.2212               452.7084
 Red. masses --      8.4827                 9.1443                 9.9184
 Frc consts  --      0.9513                 1.0921                 1.1977
 IR Inten    --      6.8282                 9.1465                59.6762

                     31                     32                     33
                      A                      A                      A
 Frequencies --    464.0703               475.9943               481.3295
 Red. masses --      3.3138                 9.8596                 9.4519
 Frc consts  --      0.4205                 1.3162                 1.2902
 IR Inten    --     11.9552                15.0745                 8.1608

                     34                     35                     36
                      A                      A                      A
 Frequencies --    491.2671               496.0599               506.3144
 Red. masses --      8.1881                10.3241                 9.5190
 Frc consts  --      1.1643                 1.4968                 1.4377
 IR Inten    --     24.1651                37.2536                16.4044

                     37                     38                     39
                      A                      A                      A
 Frequencies --    557.4365               603.7028               604.5252
 Red. masses --      5.8318                 9.0048                10.0086
 Frc consts  --      1.0677                 1.9336                 2.1550
 IR Inten    --     40.7481               133.3983               489.5802

                     40                     41                     42
                      A                      A                      A
 Frequencies --    637.8792               651.6012               667.5507
 Red. masses --      4.2992                 7.6512                 7.0091
 Frc consts  --      1.0307                 1.9140                 1.8403
 IR Inten    --      2.4389                24.8377               419.0117

                     43                     44                     45
                      A                      A                      A
 Frequencies --    674.8652               699.0443               703.3436
 Red. masses --      9.7953                 8.1327                 6.8554
 Frc consts  --      2.6285                 2.3415                 1.9981
 IR Inten    --    372.0406               242.7608                 5.3659

                     46                     47                     48
                      A                      A                      A
 Frequencies --    724.1492               731.6723               737.5774
 Red. masses --      4.7263                 5.6078                 8.3279
 Frc consts  --      1.4602                 1.7688                 2.6693
 IR Inten    --     19.1910                 0.7259               290.7563

                     49                     50                     51
                      A                      A                      A
 Frequencies --    802.5603               827.7141               844.0247
 Red. masses --      3.0287                 1.3918                 2.0250
 Frc consts  --      1.1494                 0.5618                 0.8499
 IR Inten    --      1.8723                 0.3064                42.4396

                     52                     53                     54
                      A                      A                      A
 Frequencies --    855.9666               932.4952               945.6760
 Red. masses --      7.1967                 6.6214                 1.4455
 Frc consts  --      3.1067                 3.3923                 0.7616
 IR Inten    --     19.4768                58.4644                29.9064

                     55                     56                     57
                      A                      A                      A
 Frequencies --    952.2183               960.5475               962.3835
 Red. masses --      1.6422                 8.2867                 6.2129
 Frc consts  --      0.8773                 4.5047                 3.3903
 IR Inten    --      8.5497               803.7806               284.5523

                     58                     59                     60
                      A                      A                      A
 Frequencies --    989.0670               993.4211               995.5994
 Red. masses --      5.5253                 1.3196                 1.3401
 Frc consts  --      3.1846                 0.7673                 0.7826
 IR Inten    --      9.8952                 0.0037                 3.2532

                     61                     62                     63
                      A                      A                      A
 Frequencies --   1066.1656              1066.9285              1092.3304
 Red. masses --      2.4353                 2.4908                 6.1085
 Frc consts  --      1.6310                 1.6706                 4.2943
 IR Inten    --     66.4587                54.3631               313.7551

                     64                     65                     66
                      A                      A                      A
 Frequencies --   1096.5115              1135.8100              1136.9200
 Red. masses --      5.8036                 2.0664                 2.0650
 Frc consts  --      4.1112                 1.5707                 1.5726
 IR Inten    --   1378.9873                40.7579                36.3144

                     67                     68                     69
                      A                      A                      A
 Frequencies --   1162.3122              1162.4261              1181.0257
 Red. masses --      1.2586                 1.2588                 1.4229
 Frc consts  --      1.0018                 1.0021                 1.1694
 IR Inten    --      3.2805                 3.6233                 9.0955

                     70                     71                     72
                      A                      A                      A
 Frequencies --   1181.4972              1184.0621              1194.8271
 Red. masses --      1.3579                 2.4130                 6.8869
 Frc consts  --      1.1168                 1.9933                 5.7928
 IR Inten    --     41.3966                17.8787               277.6112

                     73                     74                     75
                      A                      A                      A
 Frequencies --   1197.9150              1226.5672              1246.9977
 Red. masses --      2.4145                 1.6065                 5.0324
 Frc consts  --      2.0414                 1.4240                 4.6106
 IR Inten    --      0.9723                15.7848               886.6842

                     76                     77                     78
                      A                      A                      A
 Frequencies --   1249.8680              1255.1971              1316.4423
 Red. masses --     18.8282                 2.2125                 2.0450
 Frc consts  --     17.3295                 2.0538                 2.0881
 IR Inten    --    163.9320                10.4797                27.9965

                     79                     80                     81
                      A                      A                      A
 Frequencies --   1366.3609              1367.2109              1383.9544
 Red. masses --     11.1125                11.3078                 3.5738
 Frc consts  --     12.2234                12.4537                 4.0330
 IR Inten    --    101.1489                 3.7969               642.8295

                     82                     83                     84
                      A                      A                      A
 Frequencies --   1450.8551              1457.0989              1457.3434
 Red. masses --      3.2824                 1.1303                 1.1314
 Frc consts  --      4.0709                 1.4139                 1.4157
 IR Inten    --     17.4041                 5.5712                 4.3973

                     85                     86                     87
                      A                      A                      A
 Frequencies --   1475.0087              1475.7304              1477.6307
 Red. masses --      1.0503                 1.0564                 3.4675
 Frc consts  --      1.3463                 1.3554                 4.4607
 IR Inten    --     18.1033                19.4445                85.8449

                     88                     89                     90
                      A                      A                      A
 Frequencies --   1480.5096              1489.9344              1490.0950
 Red. masses --      2.5985                 1.0478                 1.0478
 Frc consts  --      3.3558                 1.3704                 1.3707
 IR Inten    --    156.8815                20.2483                20.7948

                     91                     92                     93
                      A                      A                      A
 Frequencies --   1493.7187              1532.7633              1547.0495
 Red. masses --      6.8713                 7.9318                 6.6093
 Frc consts  --      9.0329                10.9792                 9.3200
 IR Inten    --   1210.8497               107.5493               279.8643

                     94                     95                     96
                      A                      A                      A
 Frequencies --   1603.6437              1607.3008              1629.7871
 Red. masses --      9.1461                 6.1007                 7.7210
 Frc consts  --     13.8581                 9.2859                12.0834
 IR Inten    --     12.0905               272.9205                79.1953

                     97                     98                     99
                      A                      A                      A
 Frequencies --   3053.1975              3053.2458              3137.2992
 Red. masses --      1.0289                 1.0288                 1.1092
 Frc consts  --      5.6509                 5.6510                 6.4323
 IR Inten    --     70.1072                41.2676                18.1704

                    100                    101                    102
                      A                      A                      A
 Frequencies --   3137.3523              3166.6354              3166.6536
 Red. masses --      1.1092                 1.1061                 1.1060
 Frc consts  --      6.4327                 6.5348                 6.5347
 IR Inten    --     18.9800                 6.6645                 7.1304

                    103                    104                    105
                      A                      A                      A
 Frequencies --   3195.8635              3196.0451              3208.7761
 Red. masses --      1.0874                 1.0874                 1.0950
 Frc consts  --      6.5435                 6.5445                 6.6427
 IR Inten    --      8.8941                 3.6314                 3.5254

                    106                    107                    108
                      A                      A                      A
 Frequencies --   3209.0736              3213.3373              3213.7732
 Red. masses --      1.0950                 1.0906                 1.0907
 Frc consts  --      6.6440                 6.6346                 6.6371
 IR Inten    --      3.7826                 5.0683                12.5964

 - Thermochemistry -
 -------------------
 Temperature   298.150 Kelvin.  Pressure   1.00000 Atm.
 Atom     1 has atomic number  6 and mass  12.00000

 Molecular mass:   395.99736 amu.
 Principal axes and moments of inertia in atomic units:
                           1         2         3
     Eigenvalues --  3811.54657********************
           X            0.89432   0.44742  -0.00062
           Y            0.28766  -0.57393   0.76671
           Z           -0.34269   0.68587   0.64199
 This molecule is an asymmetric top.
 Rotational symmetry number  1.
 Warning -- assumption of classical behavior for rotation
           may cause significant error
 Rotational temperatures (Kelvin)      0.02272     0.00326     0.00299
 Rotational constants (GHZ):           0.47349     0.06786     0.06237
 Zero-point vibrational energy     683259.5 (Joules/Mol)
                                  163.30293 (Kcal/Mol)
 Warning -- explicit consideration of  39 degrees of freedom as
           vibrations may cause significant error
 Vibrational temperatures:     22.94    27.14    42.75    66.94    73.03
          (Kelvin)             78.84   104.30   114.56   167.42   185.83
                              187.39   204.49   210.06   226.54   268.75
                              276.24   316.79   348.09   360.15   373.61
                              388.74   468.14   501.76   526.02   533.55
                              564.85   600.64   627.71   647.77   651.35
                              667.69   684.85   692.53   706.82   713.72
                              728.47   802.03   868.59   869.78   917.77
                              937.51   960.46   970.98  1005.77  1011.95
                             1041.89  1052.71  1061.21  1154.71  1190.90
                             1214.36  1231.54  1341.65  1360.62  1370.03
                             1382.01  1384.66  1423.05  1429.31  1432.45
                             1533.97  1535.07  1571.62  1577.64  1634.18
                             1635.77  1672.31  1672.47  1699.23  1699.91
                             1703.60  1719.09  1723.53  1764.76  1794.15
                             1798.28  1805.95  1894.07  1965.89  1967.11
                             1991.20  2087.46  2096.44  2096.79  2122.21
                             2123.25  2125.98  2130.12  2143.68  2143.91
                             2149.13  2205.30  2225.86  2307.29  2312.55
                             2344.90  4392.87  4392.94  4513.87  4513.95
                             4556.08  4556.11  4598.13  4598.40  4616.71
                             4617.14  4623.28  4623.90

 Zero-point correction=                           0.260240 (Hartree/Particle)
 Thermal correction to Energy=                    0.284288
 Thermal correction to Enthalpy=                  0.285232
 Thermal correction to Gibbs Free Energy=         0.202563
 Sum of electronic and zero-point Energies=          -2015.261644
 Sum of electronic and thermal Energies=             -2015.237595
 Sum of electronic and thermal Enthalpies=           -2015.236651
 Sum of electronic and thermal Free Energies=        -2015.319320

                     E (Thermal)             CV                S
                      KCal/Mol        Cal/Mol-Kelvin    Cal/Mol-Kelvin
 Total                  178.393             88.823            173.991
 Electronic               0.000              0.000              1.377
 Translational            0.889              2.981             43.820
 Rotational               0.889              2.981             36.326
 Vibrational            176.616             82.862             92.467
 Vibration     1          0.593              1.986              7.084
 Vibration     2          0.593              1.986              6.751
 Vibration     3          0.593              1.984              5.849
 Vibration     4          0.595              1.979              4.960
 Vibration     5          0.595              1.977              4.788
 Vibration     6          0.596              1.976              4.636
 Vibration     7          0.599              1.967              4.084
 Vibration     8          0.600              1.963              3.900
 Vibration     9          0.608              1.936              3.160
 Vibration    10          0.612              1.924              2.959
 Vibration    11          0.612              1.923              2.942
 Vibration    12          0.616              1.911              2.775
 Vibration    13          0.617              1.907              2.724
 Vibration    14          0.621              1.894              2.580
 Vibration    15          0.632              1.858              2.259
 Vibration    16          0.634              1.851              2.208
 Vibration    17          0.647              1.810              1.958
 Vibration    18          0.658              1.776              1.789
 Vibration    19          0.663              1.762              1.728
 Vibration    20          0.668              1.746              1.664
 Vibration    21          0.674              1.728              1.595
 Vibration    22          0.709              1.625              1.283
 Vibration    23          0.726              1.578              1.172
 Vibration    24          0.739              1.543              1.098
 Vibration    25          0.743              1.532              1.076
 Vibration    26          0.760              1.486              0.990
 Vibration    27          0.780              1.432              0.901
 Vibration    28          0.797              1.391              0.838
 Vibration    29          0.809              1.360              0.795
 Vibration    30          0.811              1.355              0.788
 Vibration    31          0.822              1.330              0.754
 Vibration    32          0.833              1.303              0.721
 Vibration    33          0.838              1.291              0.706
 Vibration    34          0.847              1.269              0.680
 Vibration    35          0.852              1.259              0.668
 Vibration    36          0.862              1.236              0.643
 Vibration    37          0.913              1.123              0.529
 Vibration    38          0.962              1.024              0.443
 Vibration    39          0.963              1.022              0.442

                           ! Non-Optimized Parameters !
 Normal termination of Gaussian 16 at Sun Feb 11 02:32:46 2024.
