 Q-Chem 5.4, Q-Chem, Inc., Pleasanton, CA (2021)
 Q-Chem 5.4.0 for Intel X86 EM64T Linux

User input:
--------------------------------------------------------------
$molecule
-2 1
C                 -2.4751200000      1.4057120000      0.3137840000
C                 -1.9653920000     -0.0451810000      0.4353040000
C                 -2.7594190000     -0.9744620000     -0.5073690000
C                 -0.4618800000     -0.1564750000      0.2137230000
C                  0.3392710000     -0.6780360000      1.2342850000
C                  1.7614640000     -0.8283270000      1.1693350000
O                  2.4782020000     -1.3135050000      2.1363310000
C                  2.3422310000     -0.3814380000     -0.0713940000
C                  1.5495990000      0.1360770000     -1.0947750000
C                  0.1240320000      0.2758140000     -1.0361150000
O                 -0.5699040000      0.7493980000     -2.0270350000
C                  3.8364970000     -0.5037340000     -0.2272340000
H                 -2.2404190000      1.7836750000     -0.6846720000
H                 -3.5584340000      1.4683640000      0.4834740000
H                 -1.9771640000      2.0461780000      1.0518430000
H                 -2.1618850000     -0.3790440000      1.4647780000
H                 -2.5783860000     -0.6765680000     -1.5432030000
H                 -2.4292640000     -2.0119570000     -0.3854090000
H                 -3.8410410000     -0.9349290000     -0.2987110000
H                 -0.1328400000     -1.0008870000      2.1639060000
H                  2.0199860000      0.4665590000     -2.0230060000
H                  4.3665040000      0.0173050000      0.5827470000
H                  4.1685360000     -0.0934350000     -1.1896440000
H                  4.1648250000     -1.5519950000     -0.1609440000
$end
$rem
MAX_SCF_CYCLES=200
BASIS  =  6-311++G(d,p)
GUI  =  2
JOB_TYPE  =  SP
METHOD  =  B3LYP
SOLVENT_METHOD = COSMO
$end
$solvent
dielectric 37.219
opticaldielectric 1.43
$end

--------------------------------------------------------------

             Standard Nuclear Orientation (Angstroms)
    I     Atom           X                Y                Z
 ----------------------------------------------------------------
    1      C      -2.9245861311    -0.2361197412     1.2599063621
    2      C      -2.1523187828    -0.7726026498     0.0370124692
    3      C      -2.8970535434    -0.4166555372    -1.2673441645
    4      C      -0.7017604383    -0.3064700434     0.0118388564
    5      C       0.3197743661    -1.2613444168     0.0216964253
    6      C       1.7210166971    -0.9682755798     0.0133655699
    7      O       2.6461055459    -1.8783495742     0.0263371865
    8      C       2.0253976315     0.4401131057    -0.0008504573
    9      C       1.0124620367     1.3978024163    -0.0145835856
   10      C      -0.3911014992     1.1059104084    -0.0187251788
   11      O      -1.2954287360     2.0381207955    -0.0491795126
   12      C       3.4785170130     0.8406216919    -0.0113495799
   13      H      -2.9093125470     0.8566857266     1.2399589300
   14      H      -3.9651558895    -0.5874988551     1.2659469018
   15      H      -2.4463760790    -0.5717374776     2.1881109966
   16      H      -2.1337405005    -1.8697297897     0.1135474608
   17      H      -2.9251960583     0.6699793945    -1.3809152085
   18      H      -2.3731208513    -0.8391139379    -2.1318069308
   19      H      -3.9261683799    -0.8115348859    -1.2669931223
   20      H       0.0536059748    -2.3197214154     0.0392829133
   21      H       1.2757961175     2.4573518664    -0.0248401024
   22      H       4.0196950101     0.4025747493     0.8393557342
   23      H       3.5880124279     1.9322552792     0.0229292783
   24      H       3.9944621991     0.4644416505    -0.9076385429
 ----------------------------------------------------------------

   14    -538.8390935545      4.95e-06  Convergence criterion met
 Total energy in the final basis set =     -538.8390935545
    5    -539.1330508505      8.73e-06  Convergence criterion met
 Total energy in the final basis set =     -539.1330508505

                    Orbital Energies (a.u.)
 --------------------------------------------------------------

 Alpha MOs
 -- Occupied --
-19.0151 -19.0093 -10.1612 -10.1602 -10.1485 -10.1368 -10.1338 -10.1320
-10.1235 -10.1207 -10.1139 -10.1136  -0.9271  -0.9219  -0.7868  -0.7622
 -0.7115  -0.6587  -0.6561  -0.6250  -0.5587  -0.5470  -0.4897  -0.4478
 -0.4239  -0.4073  -0.4028  -0.3916  -0.3841  -0.3838  -0.3660  -0.3543
 -0.3532  -0.3350  -0.3339  -0.3150  -0.3102  -0.3042  -0.3025  -0.2983
 -0.2205  -0.2005  -0.1946  -0.1870  -0.1129

          Ground-State Mulliken Net Atomic Charges

     Atom                 Charge (a.u.)
  ----------------------------------------
      1 C                    -0.690794
      2 C                     0.196284
      3 C                    -0.711533
      4 C                     0.996157
      5 C                    -0.226126
      6 C                    -0.812134
      7 O                    -0.790655
      8 C                     0.939047
      9 C                    -0.708824
     10 C                    -0.717688
     11 O                    -0.742782
     12 C                    -0.408511
     13 H                     0.177179
     14 H                     0.133125
     15 H                     0.121132
     16 H                     0.156462
     17 H                     0.173876
     18 H                     0.126023
     19 H                     0.135443
     20 H                     0.121994
     21 H                     0.107101
     22 H                     0.145091
     23 H                     0.133485
     24 H                     0.146648
  ----------------------------------------
  Sum of atomic charges =    -2.000000

                    Cartesian Multipole Moments
 -----------------------------------------------------------------
    Charge (ESU x 10^10)
                -9.6064
    Dipole Moment (Debye)
         X      -6.2860      Y      -0.4944      Z       0.0558
       Tot       6.3057
    Quadrupole Moments (Debye-Ang)
        XX    -122.5939     XY      30.8886     YY    -116.0619
        XZ      -0.5351     YZ       0.5832     ZZ     -84.5141

 Total job time:  40.73s(wall), 304.12s(cpu)
        *  Thank you very much for using Q-Chem.  Have a nice day.  *
