 Gaussian 16, Revision A.03,
 Gaussian 16:  ES64L-G16RevA.03 25-Dec-2016

 --------------------------------------
 #P UB3LYP/6-311++G(d,p) nosym opt freq
 --------------------------------------

 -------
 Reduced
 -------
 Symbolic Z-matrix:
 Charge = -2 Multiplicity = 1

 SCF Done:  E(UB3LYP) =  -538.838926732     A.U. after   49 cycles
 Optimization completed.
    -- Stationary point found.
 Normal termination of Gaussian 16 at Sat Jan  6 05:56:49 2024.

 ----------------------------------------------------------------------
 #P Geom=AllCheck Guess=TCheck SCRF=Check GenChk UB3LYP/6-311++G(d,p) F
 req
 ----------------------------------------------------------------------

 Structure from the checkpoint file:  "034-an.chk"
 -------
 Reduced
 -------
 Charge = -2 Multiplicity = 1

                          Input orientation:
 ---------------------------------------------------------------------
 Center     Atomic      Atomic             Coordinates (Angstroms)
 Number     Number       Type             X           Y           Z
 ---------------------------------------------------------------------
      1          6           0       -2.475120    1.405712    0.313784
      2          6           0       -1.965392   -0.045181    0.435304
      3          6           0       -2.759419   -0.974462   -0.507369
      4          6           0       -0.461880   -0.156475    0.213723
      5          6           0        0.339271   -0.678036    1.234285
      6          6           0        1.761464   -0.828327    1.169335
      7          8           0        2.478202   -1.313505    2.136331
      8          6           0        2.342231   -0.381438   -0.071394
      9          6           0        1.549599    0.136077   -1.094775
     10          6           0        0.124032    0.275814   -1.036115
     11          8           0       -0.569904    0.749398   -2.027035
     12          6           0        3.836497   -0.503734   -0.227234
     13          1           0       -2.240419    1.783675   -0.684672
     14          1           0       -3.558434    1.468364    0.483474
     15          1           0       -1.977164    2.046178    1.051843
     16          1           0       -2.161885   -0.379044    1.464778
     17          1           0       -2.578386   -0.676568   -1.543203
     18          1           0       -2.429264   -2.011957   -0.385409
     19          1           0       -3.841041   -0.934929   -0.298711
     20          1           0       -0.132840   -1.000887    2.163906
     21          1           0        2.019986    0.466559   -2.023006
     22          1           0        4.366504    0.017305    0.582747
     23          1           0        4.168536   -0.093435   -1.189644
     24          1           0        4.164825   -1.551995   -0.160944
 ---------------------------------------------------------------------

 SCF Done:  E(UB3LYP) =  -538.838926732     A.U. after   10 cycles

 Alpha  occ. eigenvalues --  -18.76396 -18.76253  -9.92469  -9.91967  -9.91751
 Alpha  occ. eigenvalues --   -9.91674  -9.91304  -9.91211  -9.88598  -9.88292
 Alpha  occ. eigenvalues --   -9.87462  -9.87293  -0.67431  -0.67051  -0.55385
 Alpha  occ. eigenvalues --   -0.52856  -0.47966  -0.43778  -0.42054  -0.38705
 Alpha  occ. eigenvalues --   -0.33069  -0.30712  -0.25409  -0.21609  -0.19166
 Alpha  occ. eigenvalues --   -0.18018  -0.16523  -0.16383  -0.16120  -0.14558
 Alpha  occ. eigenvalues --   -0.14175  -0.12520  -0.10507  -0.10130  -0.09672
 Alpha  occ. eigenvalues --   -0.08202  -0.07866  -0.06395  -0.06195  -0.04921
 Alpha  occ. eigenvalues --    0.03408   0.04124   0.06202   0.06400   0.14254
 Alpha virt. eigenvalues --    0.15833   0.17455   0.18341   0.19627   0.20160
 Alpha virt. eigenvalues --    0.20386   0.21357   0.22363   0.22577   0.23212
 Alpha virt. eigenvalues --    0.23573   0.24086   0.26873   0.26954   0.27410

  Beta  occ. eigenvalues --  -18.76396 -18.76253  -9.92469  -9.91967  -9.91751
  Beta  occ. eigenvalues --   -9.91674  -9.91304  -9.91211  -9.88598  -9.88292
  Beta  occ. eigenvalues --   -9.87462  -9.87293  -0.67431  -0.67051  -0.55385
  Beta  occ. eigenvalues --   -0.52856  -0.47966  -0.43778  -0.42054  -0.38705
  Beta  occ. eigenvalues --   -0.33069  -0.30712  -0.25409  -0.21609  -0.19166
  Beta  occ. eigenvalues --   -0.18018  -0.16523  -0.16383  -0.16120  -0.14558
  Beta  occ. eigenvalues --   -0.14175  -0.12520  -0.10507  -0.10130  -0.09672
  Beta  occ. eigenvalues --   -0.08202  -0.07866  -0.06395  -0.06195  -0.04921
  Beta  occ. eigenvalues --    0.03408   0.04124   0.06202   0.06400   0.14254
  Beta virt. eigenvalues --    0.15833   0.17455   0.18341   0.19627   0.20160
  Beta virt. eigenvalues --    0.20386   0.21357   0.22363   0.22577   0.23212
  Beta virt. eigenvalues --    0.23573   0.24086   0.26873   0.26954   0.27410

 Mulliken charges and spin densities:
               1          2
     1  C    0.120622  -0.000000
     2  C   -2.077266  -0.000000
     3  C    0.496674   0.000000
     4  C    2.860462  -0.000000
     5  C    0.016972   0.000000
     6  C   -1.318961   0.000000
     7  O   -0.551840  -0.000000
     8  C    1.437918   0.000000
     9  C   -0.435346   0.000000
    10  C   -1.229958  -0.000000
    11  O   -0.515305   0.000000
    12  C   -0.422538   0.000000
    13  H    0.133546   0.000000
    14  H   -0.412279   0.000000
    15  H    0.100084  -0.000000
    16  H   -0.059055   0.000000
    17  H    0.233529  -0.000000
    18  H    0.104428  -0.000000
    19  H   -0.862620  -0.000000
    20  H    0.056657  -0.000000
    21  H    0.027191   0.000000
    22  H    0.112939   0.000000
    23  H    0.088997   0.000000
    24  H    0.095150   0.000000
 Sum of Mulliken charges =  -2.00000  -0.00000

 Dipole moment (field-independent basis, Debye):
    X=              0.2432    Y=              2.6213    Z=             -1.1394  Tot=              2.8685
 Quadrupole moment (field-independent basis, Debye-Ang):
   XX=           -167.0656   YY=           -100.4260   ZZ=           -119.4322
   XY=             11.3673   XZ=            -17.8941   YZ=             13.4740

  Exact polarizability:1520.397-114.094 652.845 -41.649 104.317 361.557
 Approx polarizability:5100.928-114.320 445.571-161.907   4.360 396.872

                      1                      2                      3
                      A                      A                      A
 Frequencies --     70.1424                81.0696               100.2653
 Red. masses --      3.1686                 3.0427                 1.0944
 Frc consts  --      0.0092                 0.0118                 0.0065
 IR Inten    --      1.3128                 5.7432                 1.9612

                      4                      5                      6
                      A                      A                      A
 Frequencies --    158.3521               188.1476               212.5765
 Red. masses --      5.6517                 3.1711                 3.4042
 Frc consts  --      0.0835                 0.0661                 0.0906
 IR Inten    --      2.7539                16.8923                 4.0575

                      7                      8                      9
                      A                      A                      A
 Frequencies --    243.0304               261.0897               279.8823
 Red. masses --      1.0359                 1.6122                 1.6936
 Frc consts  --      0.0360                 0.0648                 0.0782
 IR Inten    --     27.5347                39.9960                10.4255

                     10                     11                     12
                      A                      A                      A
 Frequencies --    282.5686               295.5589               371.1792
 Red. masses --      3.1728                 4.9940                 7.9855
 Frc consts  --      0.1493                 0.2570                 0.6482
 IR Inten    --      2.0374                 9.6576                 3.7377

                     13                     14                     15
                      A                      A                      A
 Frequencies --    403.0130               421.3881               446.5846
 Red. masses --      3.9371                 3.4428                 3.5852
 Frc consts  --      0.3768                 0.3602                 0.4213
 IR Inten    --     20.2158               443.0063               226.2760

                     16                     17                     18
                      A                      A                      A
 Frequencies --    497.9021               506.0272               640.3967
 Red. masses --      3.2419                 5.4368                 3.9927
 Frc consts  --      0.4735                 0.8202                 0.9648
 IR Inten    --     24.7945               226.4977                12.8140

                     19                     20                     21
                      A                      A                      A
 Frequencies --    686.3320               688.3874               723.2093
 Red. masses --      3.4528                 3.8097                 5.6078
 Frc consts  --      0.9583                 1.0637                 1.7281
 IR Inten    --      2.0479                 3.0190                 4.5437

                     22                     23                     24
                      A                      A                      A
 Frequencies --    728.5634               820.8652               826.0193
 Red. masses --      2.3085                 1.9864                 3.7363
 Frc consts  --      0.7220                 0.7886                 1.5020
 IR Inten    --     14.0975                21.7056                48.2269

                     25                     26                     27
                      A                      A                      A
 Frequencies --    849.6078               886.1278               921.5623
 Red. masses --      1.6365                 2.3664                 1.1667
 Frc consts  --      0.6960                 1.0948                 0.5838
 IR Inten    --     22.1119                 6.8449                33.8371

                     28                     29                     30
                      A                      A                      A
 Frequencies --    943.6460               995.9003              1030.4691
 Red. masses --      1.5883                 1.5693                 1.9065
 Frc consts  --      0.8333                 0.9170                 1.1928
 IR Inten    --     99.7807               139.0639               170.1144

                     31                     32                     33
                      A                      A                      A
 Frequencies --   1037.8631              1116.0919              1120.7610
 Red. masses --      1.4618                 2.3107                 2.7302
 Frc consts  --      0.9277                 1.6959                 2.0205
 IR Inten    --      8.1440                16.1652                46.0743

                     34                     35                     36
                      A                      A                      A
 Frequencies --   1149.1774              1177.7884              1204.3033
 Red. masses --      2.1397                 2.7203                 2.6646
 Frc consts  --      1.6649                 2.2234                 2.2770
 IR Inten    --     71.0639               107.8815                34.9924

                     37                     38                     39
                      A                      A                      A
 Frequencies --   1226.3937              1284.3903              1332.6248
 Red. masses --      1.3783                 3.5147                 1.6796
 Frc consts  --      1.2214                 3.4161                 1.7574
 IR Inten    --    515.8277               116.2444               193.5893

                     40                     41                     42
                      A                      A                      A
 Frequencies --   1341.9483              1347.6603              1355.9897
 Red. masses --      1.2580                 3.0236                 1.2612
 Frc consts  --      1.3348                 3.2355                 1.3663
 IR Inten    --     12.2827              1790.4272               132.2591

                     43                     44                     45
                      A                      A                      A
 Frequencies --   1372.1142              1382.1762              1429.3331
 Red. masses --      1.3512                 1.5939                 3.8172
 Frc consts  --      1.4989                 1.7941                 4.5948
 IR Inten    --      1.5535               318.9777               436.1261

                     46                     47                     48
                      A                      A                      A
 Frequencies --   1449.1638              1453.8343              1463.6540
 Red. masses --      1.0637                 4.0086                 1.0536
 Frc consts  --      1.3162                 4.9920                 1.3298
 IR Inten    --      6.2682               423.4782               179.2824

                     49                     50                     51
                      A                      A                      A
 Frequencies --   1471.3760              1486.4379              1487.6327
 Red. masses --      2.2254                 1.3188                 1.2538
 Frc consts  --      2.8386                 1.7168                 1.6349
 IR Inten    --    331.2998               121.3390               218.0136

                     52                     53                     54
                      A                      A                      A
 Frequencies --   1500.9615              1516.7235              1585.3803
 Red. masses --      1.0543                 1.0644                 5.3926
 Frc consts  --      1.3995                 1.4426                 7.9858
 IR Inten    --     16.8444                46.8133              2879.4357

                     55                     56                     57
                      A                      A                      A
 Frequencies --   2940.2465              2951.2659              2958.1022
 Red. masses --      1.0555                 1.0449                 1.0782
 Frc consts  --      5.3763                 5.3620                 5.5587
 IR Inten    --     89.1931              1194.3192                48.0081

                     58                     59                     60
                      A                      A                      A
 Frequencies --   2968.6919              2975.9443              3023.4374
 Red. masses --      1.0864                 1.0427                 1.0998
 Frc consts  --      5.6409                 5.4410                 5.9231
 IR Inten    --    374.0040               261.2906                50.2339

                     61                     62                     63
                      A                      A                      A
 Frequencies --   3029.0130              3033.4828              3074.2554
 Red. masses --      1.0965                 1.0808                 1.0863
 Frc consts  --      5.9276                 5.8597                 6.0491
 IR Inten    --    299.6928                20.0995               219.0713

                     64                     65                     66
                      A                      A                      A
 Frequencies --   3078.8973              3080.7659              3087.4645
 Red. masses --      1.0878                 1.0982                 1.0982
 Frc consts  --      6.0754                 6.1410                 6.1681
 IR Inten    --    209.0237                41.2355                20.5301

 - Thermochemistry -
 -------------------
 Temperature   298.150 Kelvin.  Pressure   1.00000 Atm.
 Atom     1 has atomic number  6 and mass  12.00000

 Molecular mass:   164.08373 amu.
 Principal axes and moments of inertia in atomic units:
                           1         2         3
     Eigenvalues --  1038.410652919.131223557.08031
           X            0.96398  -0.24271   0.10881
           Y           -0.19257  -0.35465   0.91495
           Z            0.18348   0.90295   0.38861
 This molecule is an asymmetric top.
 Rotational symmetry number  1.
 Warning -- assumption of classical behavior for rotation
           may cause significant error
 Rotational temperatures (Kelvin)      0.08341     0.02967     0.02435
 Rotational constants (GHZ):           1.73798     0.61825     0.50737
 Zero-point vibrational energy     502761.8 (Joules/Mol)
                                  120.16296 (Kcal/Mol)
 Warning -- explicit consideration of  17 degrees of freedom as
           vibrations may cause significant error
 Vibrational temperatures:    100.92   116.64   144.26   227.83   270.70
          (Kelvin)            305.85   349.67   375.65   402.69   406.55
                              425.24   534.04   579.85   606.28   642.54
                              716.37   728.06   921.39   987.48   990.44
                             1040.54  1048.24  1181.04  1188.46  1222.40
                             1274.94  1325.92  1357.70  1432.88  1482.62
                             1493.25  1605.81  1612.53  1653.41  1694.57
                             1732.72  1764.51  1847.95  1917.35  1930.76
                             1938.98  1950.97  1974.17  1988.64  2056.49
                             2085.02  2091.74  2105.87  2116.98  2138.65
                             2140.37  2159.55  2182.23  2281.01  4230.36
                             4246.21  4256.05  4271.29  4281.72  4350.05
                             4358.07  4364.51  4423.17  4429.85  4432.54
                             4442.17

 Zero-point correction=                           0.191492 (Hartree/Particle)
 Thermal correction to Energy=                    0.203580
 Thermal correction to Enthalpy=                  0.204524
 Thermal correction to Gibbs Free Energy=         0.153892
 Sum of electronic and zero-point Energies=           -538.647435
 Sum of electronic and thermal Energies=              -538.635347
 Sum of electronic and thermal Enthalpies=            -538.634403
 Sum of electronic and thermal Free Energies=         -538.685035

                     E (Thermal)             CV                S
                      KCal/Mol        Cal/Mol-Kelvin    Cal/Mol-Kelvin
 Total                  127.748             45.895            106.565
 Electronic               0.000              0.000              0.000
 Translational            0.889              2.981             41.194
 Rotational               0.889              2.981             30.756
 Vibrational            125.971             39.934             34.614
 Vibration     1          0.598              1.968              4.149
 Vibration     2          0.600              1.962              3.865
 Vibration     3          0.604              1.949              3.449
 Vibration     4          0.621              1.893              2.569
 Vibration     5          0.633              1.856              2.246
 Vibration     6          0.644              1.822              2.021
 Vibration     7          0.659              1.774              1.781
 Vibration     8          0.669              1.744              1.654
 Vibration     9          0.680              1.711              1.534
 Vibration    10          0.682              1.706              1.518
 Vibration    11          0.690              1.682              1.442
 Vibration    12          0.743              1.531              1.075
 Vibration    13          0.768              1.464              0.952
 Vibration    14          0.784              1.424              0.887
 Vibration    15          0.806              1.368              0.806
 Vibration    16          0.853              1.255              0.663
 Vibration    17          0.861              1.237              0.643

 Optimization completed.
    -- Stationary point found.
 Normal termination of Gaussian 16 at Sat Jan  6 06:18:54 2024.
