 Q-Chem 5.4, Q-Chem, Inc., Pleasanton, CA (2021)
 Q-Chem 5.4.0 for Intel X86 EM64T Linux

User input:
--------------------------------------------------------------
$molecule
-1 2
C                 -1.9779430000     -2.0988730000      1.2899360000
C                 -2.2624570000     -2.1654740000     -0.1497610000
C                 -1.4812800000     -1.4441240000     -1.0350650000
C                 -0.3869100000     -0.5870650000     -0.6467130000
C                 -0.1339550000     -0.5198190000      0.7789970000
C                 -0.8812280000     -1.2287340000      1.6741790000
O                 -2.6328240000     -2.7337220000      2.1623430000
O                  0.3055190000      0.0538820000     -1.4898170000
C                 -3.3819060000     -2.9934000000     -0.6594670000
C                 -3.7461200000     -4.2130770000     -0.0569010000
C                 -4.1174890000     -2.5893120000     -1.7899040000
C                 -5.1456450000     -3.3710090000     -2.3105280000
C                 -4.7734690000     -4.9948390000     -0.5790860000
C                 -5.4807710000     -4.5844650000     -1.7099600000
H                 -1.6544440000     -1.5204670000     -2.1042830000
H                  0.6839210000      0.1177500000      1.1042320000
H                 -0.6825240000     -1.1743050000      2.7410970000
H                 -3.2211170000     -4.5260770000      0.8340840000
H                 -3.8864060000     -1.6376580000     -2.2546420000
H                 -5.6937710000     -3.0247880000     -3.1818020000
H                 -5.0258210000     -5.9336010000     -0.0947230000
H                 -6.2842790000     -5.1945640000     -2.1104940000
$end
$rem
MAX_SCF_CYCLES=200
BASIS  =  6-311++G(d,p)
GUI  =  2
JOB_TYPE  =  SP
METHOD  =  B3LYP
SOLVENT_METHOD = COSMO
$end
$solvent
dielectric 37.219
opticaldielectric 1.43
$end

--------------------------------------------------------------

             Standard Nuclear Orientation (Angstroms)
    I     Atom           X                Y                Z
 ----------------------------------------------------------------
    1      C      -1.0251211154    -1.3937578449    -0.1985007607
    2      C      -0.4111961915    -0.0738392987    -0.0009594223
    3      C      -1.2182736665     1.0354484986     0.1791878297
    4      C      -2.6611850535     1.0055065802     0.1680831919
    5      C      -3.2479067271    -0.3024118595    -0.0470081690
    6      C      -2.4765932770    -1.4153401142    -0.2166975570
    7      O      -0.3628719785    -2.4563591228    -0.3575635011
    8      O      -3.3630251236     2.0442210447     0.3400951356
    9      C       1.0636163849     0.0789767922     0.0007253903
   10      C       1.9187502598    -0.9133506484     0.5178152402
   11      C       1.6654325466     1.2462121525    -0.5068533659
   12      C       3.0456542047     1.4288055665    -0.4776621134
   13      C       3.2987807066    -0.7292749907     0.5479330922
   14      C       3.8753476981     0.4417162627     0.0540617208
   15      H      -0.7754753040     2.0083518291     0.3700539497
   16      H      -4.3331814279    -0.3587143571    -0.0612222069
   17      H      -2.9252959021    -2.3923207827    -0.3746043081
   18      H       1.4830006914    -1.8338859741     0.8786316036
   19      H       1.0374525215     2.0130638214    -0.9457220288
   20      H       3.4744141374     2.3409364001    -0.8821515920
   21      H       3.9304777937    -1.5111936342     0.9591813936
   22      H       4.9519496886     0.5787207450     0.0748296507
 ----------------------------------------------------------------

   10    -612.7567519527      7.89e-06  Convergence criterion met
 Total energy in the final basis set =     -612.7567519527
    4    -612.8431319860      9.98e-06  Convergence criterion met
 Total energy in the final basis set =     -612.8431319860

                    Orbital Energies (a.u.)
 --------------------------------------------------------------

 Alpha MOs
 -- Occupied --
-19.0839 -19.0837 -10.2281 -10.2236 -10.1841 -10.1807 -10.1733 -10.1728
-10.1720 -10.1718 -10.1682 -10.1667 -10.1660 -10.1645  -1.0073  -1.0034
 -0.8609  -0.8257  -0.7743  -0.7452  -0.7246  -0.6846  -0.6230  -0.6079
 -0.5831  -0.5610  -0.5111  -0.4801  -0.4741  -0.4602  -0.4452  -0.4365
 -0.4195  -0.4177  -0.4096  -0.4076  -0.3864  -0.3817  -0.3694  -0.3629
 -0.3490  -0.3401  -0.2946  -0.2781  -0.2584  -0.2487  -0.2426  -0.2354
 -0.1677

 Beta MOs
 -- Occupied --
-19.0769 -19.0769 -10.2267 -10.2223 -10.1843 -10.1796 -10.1733 -10.1727
-10.1719 -10.1718 -10.1680 -10.1657 -10.1650 -10.1632  -0.9954  -0.9910
 -0.8601  -0.8203  -0.7723  -0.7450  -0.7224  -0.6744  -0.6203  -0.6070
 -0.5804  -0.5583  -0.5099  -0.4781  -0.4705  -0.4581  -0.4438  -0.4337
 -0.4190  -0.4145  -0.4028  -0.3941  -0.3814  -0.3690  -0.3612  -0.3523
 -0.3465  -0.3396  -0.2818  -0.2575  -0.2552  -0.2426  -0.2369  -0.2279

          Ground-State Mulliken Net Atomic Charges

     Atom                 Charge (a.u.)    Spin (a.u.)
  --------------------------------------------------------
      1 C                    -1.040186       0.058650
      2 C                     1.574078       0.121911
      3 C                    -0.638607       0.039984
      4 C                    -0.478207       0.137840
      5 C                     0.013831       0.068732
      6 C                    -0.038026       0.098647
      7 O                    -0.483441       0.241640
      8 O                    -0.549413       0.237702
      9 C                     1.199921      -0.017488
     10 C                    -0.456720       0.008750
     11 C                    -0.693210       0.022945
     12 C                    -0.314454      -0.008828
     13 C                    -0.175098      -0.000881
     14 C                    -0.524020       0.016451
     15 H                     0.182966      -0.008961
     16 H                     0.209242      -0.005721
     17 H                     0.210039      -0.007334
     18 H                     0.188109      -0.002369
     19 H                     0.190425      -0.001522
     20 H                     0.210061       0.000549
     21 H                     0.213170       0.000391
     22 H                     0.199541      -0.001089
  --------------------------------------------------------
  Sum of atomic charges =    -1.000000

                    Cartesian Multipole Moments
 -----------------------------------------------------------------
    Charge (ESU x 10^10)
                -4.8032
    Dipole Moment (Debye)
         X       8.6456      Y       0.3299      Z      -0.0233
       Tot       8.6519
    Quadrupole Moments (Debye-Ang)
        XX    -107.4651     XY      19.8385     YY    -108.1271
        XZ       3.7560     YZ      -7.5134     ZZ     -87.8868

 Total job time:  49.07s(wall), 357.32s(cpu)
        *  Thank you very much for using Q-Chem.  Have a nice day.  *
