 Gaussian 16, Revision A.03,
 Gaussian 16:  ES64L-G16RevA.03 25-Dec-2016

 ----------------------------------------------------------------
 #P UB3LYP/6-311++G(d,p) SCRF=(PCM,Solvent=n,n-DiMethylFormamide)
 ----------------------------------------------------------------

 ------------------
 Quinone PCM in DMF
 ------------------
 Symbolic Z-matrix:
 Charge =  0 Multiplicity = 1

                         Standard orientation:
 ---------------------------------------------------------------------
 Center     Atomic      Atomic             Coordinates (Angstroms)
 Number     Number       Type             X           Y           Z
 ---------------------------------------------------------------------
      1          6           0       -5.077079   -0.064693    1.337544
      2          6           0       -4.406740    0.273610   -0.006724
      3          6           0       -5.131004   -0.413796   -1.178714
      4          6           0       -2.921090   -0.048684    0.005493
      5          6           0       -2.449973   -1.359560    0.174674
      6          6           0       -1.092697   -1.653472    0.181205
      7          6           0       -0.124315   -0.649393    0.023568
      8          6           0       -0.595587    0.669525   -0.120465
      9          6           0       -1.966746    0.952101   -0.140111
     10          6           0        0.360917    1.790629   -0.228082
     11          8           0        0.044804    2.916541   -0.545881
     12          6           0        1.838155    1.493609    0.138170
     13          8           0        2.541369    2.428179    0.461001
     14          6           0        2.299620    0.086046    0.055850
     15          6           0        3.685749   -0.213586    0.034901
     16          6           0        4.766828    0.835024    0.114531
     17          6           0        4.072433   -1.551291   -0.079737
     18          6           0        3.130041   -2.568747   -0.162013
     19          6           0        1.773521   -2.273180   -0.129661
     20          6           0        1.330221   -0.951012   -0.017237
     21          1           0       -4.585294    0.450451    2.166442
     22          1           0       -5.041715   -1.139114    1.541879
     23          1           0       -6.128683    0.235787    1.326314
     24          1           0       -4.492961    1.355444   -0.154973
     25          1           0       -4.677331   -0.146697   -2.136381
     26          1           0       -6.182853   -0.115176   -1.205537
     27          1           0       -5.098468   -1.503485   -1.084159
     28          1           0       -3.155331   -2.172916    0.307994
     29          1           0       -0.795389   -2.683610    0.324767
     30          1           0       -2.264709    1.987556   -0.263305
     31          1           0        4.770852    1.329238    1.088133
     32          1           0        5.742286    0.373306   -0.050663
     33          1           0        4.621296    1.628509   -0.621056
     34          1           0        5.129108   -1.792303   -0.110598
     35          1           0        3.453056   -3.599450   -0.257943
     36          1           0        1.063239   -3.084085   -0.211025
 ---------------------------------------------------------------------

 SCF Done:  E(UB3LYP) =  -846.247992515     A.U. after   14 cycles

 The electronic state is 1-A.
 Alpha  occ. eigenvalues --  -19.14068 -19.13892 -10.28189 -10.28153 -10.21697
 Alpha  occ. eigenvalues --  -10.21428 -10.21214 -10.20571 -10.20202 -10.19766
 Alpha  occ. eigenvalues --  -10.19656 -10.19506 -10.19422 -10.19357 -10.19176
 Alpha  occ. eigenvalues --  -10.18794 -10.18732 -10.17012 -10.16274 -10.16271
 Alpha  occ. eigenvalues --   -1.08653  -1.05920  -0.90188  -0.87743  -0.82884
 Alpha  occ. eigenvalues --   -0.79866  -0.79182  -0.77722  -0.74303  -0.71965
 Alpha  occ. eigenvalues --   -0.68927  -0.68668  -0.65347  -0.63512  -0.61750
 Alpha  occ. eigenvalues --   -0.59753  -0.58506  -0.55016  -0.52739  -0.51024
 Alpha  occ. eigenvalues --   -0.49768  -0.48576  -0.47835  -0.46947  -0.46233
 Alpha  occ. eigenvalues --   -0.45717  -0.45075  -0.44432  -0.43567  -0.42910
 Alpha  occ. eigenvalues --   -0.42712  -0.42107  -0.40970  -0.40203  -0.39475
 Alpha  occ. eigenvalues --   -0.39080  -0.38950  -0.37994  -0.36964  -0.36587
 Alpha  occ. eigenvalues --   -0.36268  -0.34856  -0.34240  -0.33586  -0.31339
 Alpha  occ. eigenvalues --   -0.30017  -0.27899  -0.27154  -0.26093  -0.24349
 Alpha virt. eigenvalues --   -0.12313  -0.05626  -0.04834  -0.01090  -0.00879
 Alpha virt. eigenvalues --   -0.00189   0.00285   0.00572   0.01337   0.01494
 Alpha virt. eigenvalues --    0.01638   0.03094   0.03156   0.03372   0.03725

  Beta  occ. eigenvalues --  -19.14068 -19.13892 -10.28189 -10.28153 -10.21697
  Beta  occ. eigenvalues --  -10.21428 -10.21214 -10.20571 -10.20202 -10.19766
  Beta  occ. eigenvalues --  -10.19656 -10.19506 -10.19422 -10.19357 -10.19176
  Beta  occ. eigenvalues --  -10.18794 -10.18732 -10.17012 -10.16274 -10.16271
  Beta  occ. eigenvalues --   -1.08653  -1.05920  -0.90188  -0.87743  -0.82884
  Beta  occ. eigenvalues --   -0.79866  -0.79182  -0.77722  -0.74303  -0.71965
  Beta  occ. eigenvalues --   -0.68927  -0.68668  -0.65347  -0.63512  -0.61750
  Beta  occ. eigenvalues --   -0.59753  -0.58506  -0.55016  -0.52739  -0.51024
  Beta  occ. eigenvalues --   -0.49768  -0.48576  -0.47835  -0.46947  -0.46233
  Beta  occ. eigenvalues --   -0.45717  -0.45075  -0.44432  -0.43567  -0.42910
  Beta  occ. eigenvalues --   -0.42712  -0.42107  -0.40970  -0.40203  -0.39475
  Beta  occ. eigenvalues --   -0.39080  -0.38950  -0.37994  -0.36964  -0.36587
  Beta  occ. eigenvalues --   -0.36268  -0.34856  -0.34240  -0.33586  -0.31339
  Beta  occ. eigenvalues --   -0.30017  -0.27899  -0.27154  -0.26093  -0.24349
  Beta virt. eigenvalues --   -0.12313  -0.05626  -0.04834  -0.01090  -0.00879
  Beta virt. eigenvalues --   -0.00189   0.00285   0.00572   0.01337   0.01494
  Beta virt. eigenvalues --    0.01638   0.03094   0.03156   0.03372   0.03725

 Mulliken charges and spin densities:
               1          2
     1  C   -0.698091   0.000000
     2  C    0.178672  -0.000000
     3  C   -0.697478  -0.000000
     4  C    0.819530  -0.000000
     5  C   -0.702101  -0.000000
     6  C   -0.096307   0.000000
     7  C    0.398408   0.000000
     8  C    0.993131   0.000000
     9  C   -0.582892   0.000000
    10  C   -0.588628  -0.000000
    11  O   -0.283669  -0.000000
    12  C   -0.657736  -0.000000
    13  O   -0.254227   0.000000
    14  C    0.629598  -0.000000
    15  C    0.702956   0.000000
    16  C   -0.416642  -0.000000
    17  C   -0.745941   0.000000
    18  C   -0.754853  -0.000000
    19  C   -0.284162   0.000000
    20  C    0.364903   0.000000
    21  H    0.143326   0.000000
    22  H    0.159956  -0.000000
    23  H    0.160244   0.000000
    24  H    0.200173   0.000000
    25  H    0.143648   0.000000
    26  H    0.161919   0.000000
    27  H    0.161548  -0.000000
    28  H    0.201495   0.000000
    29  H    0.135003  -0.000000
    30  H    0.187591   0.000000
    31  H    0.193924  -0.000000
    32  H    0.158302  -0.000000
    33  H    0.168776  -0.000000
    34  H    0.146821   0.000000
    35  H    0.221115  -0.000000
    36  H    0.131687   0.000000
 Sum of Mulliken charges =  -0.00000   0.00000

 Dipole moment (field-independent basis, Debye):
    X=             -1.9380    Y=             -8.1730    Z=              0.1224  Tot=              8.4005
 Quadrupole moment (field-independent basis, Debye-Ang):
   XX=            -94.7464   YY=           -127.2184   ZZ=           -121.6839
   XY=            -10.9290   XZ=             -2.6803   YZ=              0.6608

 Normal termination of Gaussian 16 at Sat Jan 13 19:19:23 2024.
