 Q-Chem 5.4, Q-Chem, Inc., Pleasanton, CA (2021)
 Q-Chem 5.4.0 for Intel X86 EM64T Linux

User input:
--------------------------------------------------------------
$molecule
0 1
C                 -1.2505580000      2.7491670000     -0.5131830000
C                 -2.5404530000      2.2363330000     -0.4279410000
C                 -2.7481870000      0.9372910000      0.0418460000
C                 -0.1600270000      1.9640910000     -0.1277400000
C                 -0.3695120000      0.6584840000      0.3441400000
C                 -1.6663990000      0.1506240000      0.4266010000
C                  1.2130200000      2.5322080000     -0.2266070000
C                  2.3564300000      1.6429460000      0.2115930000
C                  2.1319330000      0.3819390000      0.6556610000
C                  0.7897880000     -0.1917310000      0.7592860000
O                  1.4264590000      3.6543800000     -0.6369360000
O                  0.6235630000     -1.3326400000      1.1715700000
H                 -1.0669180000      3.7534820000     -0.8746310000
H                 -1.8036700000     -0.8591430000      0.7934810000
O                  3.5295700000      2.2631330000      0.1021890000
H                 -3.3851050000      2.8465300000     -0.7268150000
H                 -3.7547980000      0.5399680000      0.1071610000
H                  2.9319920000     -0.2786060000      0.9618770000
C                  4.7692630000      1.5958730000      0.4710070000
C                  5.7482060000      2.7112470000      0.8027120000
C                  5.2404270000      0.7044620000     -0.6733610000
H                  4.5778190000      0.9997610000      1.3691010000
H                  6.7076690000      2.2863680000      1.1081210000
H                  5.3671440000      3.3306500000      1.6165840000
H                  5.9108650000      3.3484170000     -0.0696620000
H                  6.1679720000      0.1993020000     -0.3915740000
H                  5.4325780000      1.3073660000     -1.5642320000
H                  4.5031370000     -0.0595880000     -0.9258980000
$end
$rem
MAX_SCF_CYCLES=200
BASIS  =  6-311++G(d,p)
GUI  =  2
JOB_TYPE  =  SP
METHOD  =  B3LYP
SOLVENT_METHOD = COSMO
$end
$solvent
dielectric 37.219
opticaldielectric 1.43
$end

--------------------------------------------------------------

             Standard Nuclear Orientation (Angstroms)
    I     Atom           X                Y                Z
 ----------------------------------------------------------------
    1      C       2.5229743707    -1.6527227667    -0.1103645924
    2      C       3.8496754493    -1.2356398203    -0.1100732527
    3      C       4.1562999517     0.1246900013    -0.0273233339
    4      C       1.4944390207    -0.7096637571    -0.0271586294
    5      C       1.8033192930     0.6574056980     0.0557776138
    6      C       3.1366288171     1.0684079988     0.0552222547
    7      C       0.0805092058    -1.1771993185    -0.0287867645
    8      C      -0.9931083620    -0.1154002909     0.0718150036
    9      C      -0.6723740430     1.1998754415     0.1419091537
   10      C       0.7111321192     1.6764157438     0.1448502887
   11      O      -0.2180860849    -2.3510900979    -0.1063585583
   12      O       0.9642865823     2.8722749906     0.2163742222
   13      H       2.2629272334    -2.7021793089    -0.1738734734
   14      H       3.3508223341     2.1281300518     0.1199058224
   15      O      -2.2122027016    -0.6506331368     0.0857218977
   16      H       4.6461339397    -1.9681982865    -0.1742216327
   17      H       5.1914169376     0.4470719774    -0.0274117310
   18      H      -1.4202529666     1.9792286022     0.2007997785
   19      C      -3.3990565090     0.1864462281     0.1794104012
   20      C      -4.4803216405    -0.7057414507     0.7687181523
   21      C      -3.7583414772     0.7352830219    -1.1974990696
   22      H      -3.1819221221     1.0038604519     0.8745793010
   23      H      -5.4074197966    -0.1392660117     0.8868733731
   24      H      -4.1777530461    -1.0856364365     1.7461576656
   25      H      -4.6730911978    -1.5568895018     0.1115523834
   26      H      -4.6460023243     1.3689380582    -1.1235410989
   27      H      -3.9769750088    -0.0864302958    -1.8838320654
   28      H      -2.9505235242     1.3340162776    -1.6218721675
 ----------------------------------------------------------------

    9    -728.4765351056      5.60e-06  Convergence criterion met
 Total energy in the final basis set =     -728.4765351056
    5    -728.4947255956      2.95e-06  Convergence criterion met
 Total energy in the final basis set =     -728.4947255956

                    Orbital Energies (a.u.)
 --------------------------------------------------------------

 Alpha MOs
 -- Occupied --
-19.1827 -19.1434 -19.1281 -10.2925 -10.2809 -10.2760 -10.2438 -10.2087
-10.2071 -10.1977 -10.1967 -10.1955 -10.1953 -10.1943 -10.1662 -10.1644
 -1.1062  -1.0724  -1.0616  -0.8901  -0.8387  -0.8026  -0.7781  -0.7678
 -0.7022  -0.6994  -0.6542  -0.6493  -0.6004  -0.5928  -0.5522  -0.5455
 -0.5255  -0.4975  -0.4817  -0.4713  -0.4677  -0.4571  -0.4520  -0.4501
 -0.4379  -0.4344  -0.4216  -0.4063  -0.3982  -0.3932  -0.3842  -0.3783
 -0.3732  -0.3678  -0.3503  -0.3420  -0.2930  -0.2881  -0.2799  -0.2784
 -0.2633

          Ground-State Mulliken Net Atomic Charges

     Atom                 Charge (a.u.)
  ----------------------------------------
      1 C                     0.294401
      2 C                    -0.438434
      3 C                    -0.352431
      4 C                     0.076795
      5 C                     0.540251
      6 C                     0.214185
      7 C                    -0.364177
      8 C                    -0.369378
      9 C                    -0.048575
     10 C                    -0.241417
     11 O                    -0.296433
     12 O                    -0.336054
     13 H                     0.198582
     14 H                     0.192619
     15 O                    -0.005001
     16 H                     0.226668
     17 H                     0.229617
     18 H                     0.275403
     19 C                    -0.052363
     20 C                    -0.511248
     21 C                    -0.421651
     22 H                     0.172840
     23 H                     0.178481
     24 H                     0.169034
     25 H                     0.163092
     26 H                     0.172772
     27 H                     0.182899
     28 H                     0.149525
  ----------------------------------------
  Sum of atomic charges =     0.000000

                    Cartesian Multipole Moments
 -----------------------------------------------------------------
    Charge (ESU x 10^10)
                 0.0000
    Dipole Moment (Debye)
         X      -0.6664      Y      -0.0830      Z      -0.0223
       Tot       0.6719
    Quadrupole Moments (Debye-Ang)
        XX     -60.2334     XY     -12.5732     YY    -112.4778
        XZ      -1.4434     YZ      -1.0607     ZZ     -94.4240

 Total job time:  109.42s(wall), 383.15s(cpu)
        *  Thank you very much for using Q-Chem.  Have a nice day.  *
