 Gaussian 16, Revision A.03,
 Gaussian 16:  ES64L-G16RevA.03 25-Dec-2016

 --------------------------------------
 #P UB3LYP/6-311++G(d,p) nosym opt freq
 --------------------------------------

 --------
 Oxidized
 --------
 Symbolic Z-matrix:
 Charge =  0 Multiplicity = 1

 SCF Done:  E(UB3LYP) =  -728.476506375     A.U. after   16 cycles
 SCF Done:  E(UB3LYP) =  -728.476506430     A.U. after    8 cycles
 Optimization completed.
    -- Stationary point found.
 Normal termination of Gaussian 16 at Mon Jan  8 01:28:49 2024.

 ----------------------------------------------------------------------
 #P Geom=AllCheck Guess=TCheck SCRF=Check GenChk UB3LYP/6-311++G(d,p) F
 req
 ----------------------------------------------------------------------

 Structure from the checkpoint file:  "267.chk"
 --------
 Oxidized
 --------
 Charge =  0 Multiplicity = 1

                          Input orientation:
 ---------------------------------------------------------------------
 Center     Atomic      Atomic             Coordinates (Angstroms)
 Number     Number       Type             X           Y           Z
 ---------------------------------------------------------------------
      1          6           0       -1.250558    2.749167   -0.513183
      2          6           0       -2.540453    2.236333   -0.427941
      3          6           0       -2.748187    0.937291    0.041846
      4          6           0       -0.160027    1.964091   -0.127740
      5          6           0       -0.369512    0.658484    0.344140
      6          6           0       -1.666399    0.150624    0.426601
      7          6           0        1.213020    2.532208   -0.226607
      8          6           0        2.356430    1.642946    0.211593
      9          6           0        2.131933    0.381939    0.655661
     10          6           0        0.789788   -0.191731    0.759286
     11          8           0        1.426459    3.654380   -0.636936
     12          8           0        0.623563   -1.332640    1.171570
     13          1           0       -1.066918    3.753482   -0.874631
     14          1           0       -1.803670   -0.859143    0.793481
     15          8           0        3.529570    2.263133    0.102189
     16          1           0       -3.385105    2.846530   -0.726815
     17          1           0       -3.754798    0.539968    0.107161
     18          1           0        2.931992   -0.278606    0.961877
     19          6           0        4.769263    1.595873    0.471007
     20          6           0        5.748206    2.711247    0.802712
     21          6           0        5.240427    0.704462   -0.673361
     22          1           0        4.577819    0.999761    1.369101
     23          1           0        6.707669    2.286368    1.108121
     24          1           0        5.367144    3.330650    1.616584
     25          1           0        5.910865    3.348417   -0.069662
     26          1           0        6.167972    0.199302   -0.391574
     27          1           0        5.432578    1.307366   -1.564232
     28          1           0        4.503137   -0.059588   -0.925898
 ---------------------------------------------------------------------

 SCF Done:  E(UB3LYP) =  -728.476506430     A.U. after    2 cycles

 Alpha  occ. eigenvalues --  -19.18222 -19.13372 -19.11807 -10.28406 -10.27381
 Alpha  occ. eigenvalues --  -10.27260 -10.25613 -10.20805 -10.20625 -10.20100
 Alpha  occ. eigenvalues --  -10.20010 -10.19906 -10.19676 -10.19447 -10.18193
 Alpha  occ. eigenvalues --  -10.17851  -1.10518  -1.06331  -1.05037  -0.89015
 Alpha  occ. eigenvalues --   -0.84091  -0.81029  -0.77845  -0.77004  -0.71444
 Alpha  occ. eigenvalues --   -0.70034  -0.65700  -0.65109  -0.60527  -0.59243
 Alpha  occ. eigenvalues --   -0.55475  -0.54868  -0.52545  -0.49481  -0.48729
 Alpha  occ. eigenvalues --   -0.47394  -0.46755  -0.45464  -0.45114  -0.44569
 Alpha  occ. eigenvalues --   -0.43777  -0.43475  -0.41753  -0.41359  -0.40853
 Alpha  occ. eigenvalues --   -0.40073  -0.39008  -0.38158  -0.37805  -0.37071
 Alpha  occ. eigenvalues --   -0.35563  -0.35020  -0.28588  -0.28204  -0.27813
 Alpha  occ. eigenvalues --   -0.26911  -0.26374
 Alpha virt. eigenvalues --   -0.11663  -0.05450  -0.02722  -0.01377  -0.00655
 Alpha virt. eigenvalues --    0.00847   0.00940   0.01447   0.01611   0.02890
 Alpha virt. eigenvalues --    0.03065   0.03817   0.03822   0.04440   0.04650

  Beta  occ. eigenvalues --  -19.18222 -19.13372 -19.11807 -10.28406 -10.27381
  Beta  occ. eigenvalues --  -10.27260 -10.25613 -10.20805 -10.20625 -10.20100
  Beta  occ. eigenvalues --  -10.20010 -10.19906 -10.19676 -10.19447 -10.18193
  Beta  occ. eigenvalues --  -10.17851  -1.10518  -1.06331  -1.05037  -0.89015
  Beta  occ. eigenvalues --   -0.84091  -0.81029  -0.77845  -0.77004  -0.71444
  Beta  occ. eigenvalues --   -0.70034  -0.65700  -0.65109  -0.60527  -0.59243
  Beta  occ. eigenvalues --   -0.55475  -0.54868  -0.52545  -0.49481  -0.48729
  Beta  occ. eigenvalues --   -0.47394  -0.46755  -0.45464  -0.45114  -0.44569
  Beta  occ. eigenvalues --   -0.43777  -0.43475  -0.41753  -0.41359  -0.40853
  Beta  occ. eigenvalues --   -0.40073  -0.39008  -0.38158  -0.37805  -0.37071
  Beta  occ. eigenvalues --   -0.35563  -0.35020  -0.28588  -0.28204  -0.27813
  Beta  occ. eigenvalues --   -0.26911  -0.26374
  Beta virt. eigenvalues --   -0.11663  -0.05450  -0.02722  -0.01377  -0.00655
  Beta virt. eigenvalues --    0.00847   0.00940   0.01447   0.01611   0.02890
  Beta virt. eigenvalues --    0.03065   0.03817   0.03822   0.04440   0.04650

 Mulliken charges and spin densities:
               1          2
     1  C    0.243291   0.000000
     2  C   -0.369132  -0.000000
     3  C   -0.283947  -0.000000
     4  C    0.117875   0.000000
     5  C    0.585561  -0.000000
     6  C    0.178259   0.000000
     7  C   -0.430402   0.000000
     8  C   -0.374976   0.000000
     9  C   -0.004418  -0.000000
    10  C   -0.362084   0.000000
    11  O   -0.210805   0.000000
    12  O   -0.239185  -0.000000
    13  H    0.178813  -0.000000
    14  H    0.178764   0.000000
    15  O    0.045031  -0.000000
    16  H    0.176358  -0.000000
    17  H    0.178863  -0.000000
    18  H    0.239862   0.000000
    19  C   -0.062969  -0.000000
    20  C   -0.474744   0.000000
    21  C   -0.381431  -0.000000
    22  H    0.134176  -0.000000
    23  H    0.154610  -0.000000
    24  H    0.160368   0.000000
    25  H    0.157627   0.000000
    26  H    0.149310  -0.000000
    27  H    0.175727  -0.000000
    28  H    0.139598   0.000000
 Sum of Mulliken charges =  -0.00000  -0.00000

 Dipole moment (field-independent basis, Debye):
    X=              0.9113    Y=              0.2323    Z=             -0.0921  Tot=              0.9450
 Quadrupole moment (field-independent basis, Debye-Ang):
   XX=            -64.8748   YY=           -107.6328   ZZ=            -96.1530
   XY=             -3.3501   XZ=              3.9221   YZ=              4.7697

  Exact polarizability: 222.652  12.420 170.906   4.523 -25.408 104.649
 Approx polarizability: 295.025  32.047 331.879   0.244 -67.535 170.219

                      1                      2                      3
                      A                      A                      A
 Frequencies --     34.6156                62.3696                78.5618
 Red. masses --      5.2324                 2.8593                 5.7146
 Frc consts  --      0.0037                 0.0066                 0.0208
 IR Inten    --      4.3096                 0.3032                 1.9669

                      4                      5                      6
                      A                      A                      A
 Frequencies --    116.2488               118.5118               163.6188
 Red. masses --      3.9307                 4.4366                 6.7595
 Frc consts  --      0.0313                 0.0367                 0.1066
 IR Inten    --      1.1931                 0.5874                 2.5843

                      7                      8                      9
                      A                      A                      A
 Frequencies --    200.3114               204.8402               236.4882
 Red. masses --      4.8421                 1.0284                 1.4367
 Frc consts  --      0.1145                 0.0254                 0.0473
 IR Inten    --      0.5459                 0.0714                 0.7142

                     10                     11                     12
                      A                      A                      A
 Frequencies --    246.4484               270.2792               344.4669
 Red. masses --      2.4085                 4.7382                 3.7615
 Frc consts  --      0.0862                 0.2039                 0.2630
 IR Inten    --      1.8014                 0.1474                 0.9957

                     13                     14                     15
                      A                      A                      A
 Frequencies --    378.4549               394.6669               405.2626
 Red. masses --      9.3781                 2.9375                 3.4749
 Frc consts  --      0.7914                 0.2696                 0.3362
 IR Inten    --     15.9126                 3.9792                 0.6314

                     16                     17                     18
                      A                      A                      A
 Frequencies --    439.4875               457.5800               466.0940
 Red. masses --      3.8013                 8.7601                 4.6767
 Frc consts  --      0.4326                 1.0807                 0.5986
 IR Inten    --      0.8584                 4.8516                 4.9002

                     19                     20                     21
                      A                      A                      A
 Frequencies --    476.8213               510.1414               570.7093
 Red. masses --      4.4746                 3.7854                 5.9665
 Frc consts  --      0.5994                 0.5804                 1.1450
 IR Inten    --      1.4194                 6.7610                 3.3487

                     22                     23                     24
                      A                      A                      A
 Frequencies --    661.5051               681.0081               707.1612
 Red. masses --      5.9562                 3.9466                 6.1919
 Frc consts  --      1.5356                 1.0784                 1.8244
 IR Inten    --      1.7599                 2.6653                 5.9130

                     25                     26                     27
                      A                      A                      A
 Frequencies --    713.8575               737.0601               780.0110
 Red. masses --      6.4080                 2.8316                 2.5580
 Frc consts  --      1.9239                 0.9063                 0.9170
 IR Inten    --      1.3502                27.6446                24.6523

                     28                     29                     30
                      A                      A                      A
 Frequencies --    810.7135               813.2133               845.9939
 Red. masses --      2.7556                 3.7340                 3.1507
 Frc consts  --      1.0671                 1.4549                 1.3286
 IR Inten    --     20.4578                11.1929                 2.2837

                     31                     32                     33
                      A                      A                      A
 Frequencies --    867.9579               908.7349               913.6664
 Red. masses --      1.5402                 2.7953                 1.3442
 Frc consts  --      0.6836                 1.3601                 0.6611
 IR Inten    --     21.9757                 3.8878                 0.0424

                     34                     35                     36
                      A                      A                      A
 Frequencies --    941.5448               952.1149              1000.0055
 Red. masses --      1.3273                 1.3119                 1.3810
 Frc consts  --      0.6933                 0.7007                 0.8137
 IR Inten    --      0.3570                 0.5152                 1.4632

                     37                     38                     39
                      A                      A                      A
 Frequencies --   1014.1472              1016.6339              1056.7003
 Red. masses --      6.0331                 1.3232                 2.1292
 Frc consts  --      3.6559                 0.8057                 1.4008
 IR Inten    --    153.8902                 0.0508                 4.1434

                     40                     41                     42
                      A                      A                      A
 Frequencies --   1101.3076              1131.0936              1139.3499
 Red. masses --      2.8819                 1.8660                 1.8424
 Frc consts  --      2.0594                 1.4066                 1.4091
 IR Inten    --     14.0958               134.6970                 9.0445

                     43                     44                     45
                      A                      A                      A
 Frequencies --   1156.5686              1182.7677              1199.9773
 Red. masses --      2.0907                 1.1359                 1.9008
 Frc consts  --      1.6477                 0.9362                 1.6126
 IR Inten    --      8.5802                17.8508                11.6523

                     46                     47                     48
                      A                      A                      A
 Frequencies --   1231.3012              1265.1960              1282.8590
 Red. masses --      2.7574                 2.5058                 2.0238
 Frc consts  --      2.4631                 2.3633                 1.9624
 IR Inten    --    211.6045               382.7674                63.7316

                     49                     50                     51
                      A                      A                      A
 Frequencies --   1323.8435              1354.2400              1361.3370
 Red. masses --      4.2505                 1.9203                 4.2676
 Frc consts  --      4.3890                 2.0750                 4.6597
 IR Inten    --     89.8768                37.7264                 8.0099

                     52                     53                     54
                      A                      A                      A
 Frequencies --   1370.4795              1389.5320              1408.2439
 Red. masses --      1.6155                 1.4464                 1.3365
 Frc consts  --      1.7877                 1.6454                 1.5616
 IR Inten    --     12.2566                 1.9443                18.2499

                     55                     56                     57
                      A                      A                      A
 Frequencies --   1424.0933              1480.9929              1482.6586
 Red. masses --      1.2575                 1.0490                 2.3957
 Frc consts  --      1.5026                 1.3556                 3.1028
 IR Inten    --     12.3753                 2.5739                 0.0984

                     58                     59                     60
                      A                      A                      A
 Frequencies --   1488.4808              1495.6757              1505.5187
 Red. masses --      1.0442                 1.0518                 2.5969
 Frc consts  --      1.3630                 1.3863                 3.4679
 IR Inten    --      0.8305                 6.2059                 9.1507

                     61                     62                     63
                      A                      A                      A
 Frequencies --   1511.4381              1610.5425              1629.2516
 Red. masses --      1.0575                 6.6206                 5.9518
 Frc consts  --      1.4233                10.1180                 9.3083
 IR Inten    --      7.7170                78.1917                47.0394

                     64                     65                     66
                      A                      A                      A
 Frequencies --   1642.4177              1703.1915              1745.1014
 Red. masses --      8.1258                11.1204                12.8310
 Frc consts  --     12.9146                19.0063                23.0224
 IR Inten    --    343.4108               223.7027               216.5793

                     67                     68                     69
                      A                      A                      A
 Frequencies --   3034.4509              3035.8460              3040.2546
 Red. masses --      1.0777                 1.0414                 1.0355
 Frc consts  --      5.8468                 5.6550                 5.6393
 IR Inten    --      7.0583                13.9890                17.3965

                     70                     71                     72
                      A                      A                      A
 Frequencies --   3101.7662              3109.8991              3112.7492
 Red. masses --      1.1023                 1.1017                 1.1023
 Frc consts  --      6.2483                 6.2777                 6.2928
 IR Inten    --      2.9748                33.2636                14.4095

                     73                     74                     75
                      A                      A                      A
 Frequencies --   3115.8951              3169.9130              3184.2283
 Red. masses --      1.1028                 1.0869                 1.0916
 Frc consts  --      6.3083                 6.4348                 6.5210
 IR Inten    --     23.9719                 3.4032                 9.4592

                     76                     77                     78
                      A                      A                      A
 Frequencies --   3198.8103              3201.5113              3204.5115
 Red. masses --      1.0926                 1.0951                 1.0905
 Frc consts  --      6.5867                 6.6134                 6.5979
 IR Inten    --      0.4814                11.8027                 5.7879

 - Thermochemistry -
 -------------------
 Temperature   298.150 Kelvin.  Pressure   1.00000 Atm.
 Atom     1 has atomic number  6 and mass  12.00000

 Molecular mass:   216.07864 amu.
 Principal axes and moments of inertia in atomic units:
                           1         2         3
     Eigenvalues --  1611.345815509.722416843.16192
           X            0.99511  -0.08280  -0.05385
           Y            0.09518   0.94956   0.29880
           Z            0.02639  -0.30246   0.95280
 This molecule is an asymmetric top.
 Rotational symmetry number  1.
 Warning -- assumption of classical behavior for rotation
           may cause significant error
 Rotational temperatures (Kelvin)      0.05375     0.01572     0.01266
 Rotational constants (GHZ):           1.12002     0.32756     0.26373
 Zero-point vibrational energy     578545.8 (Joules/Mol)
                                  138.27576 (Kcal/Mol)
 Warning -- explicit consideration of  21 degrees of freedom as
           vibrations may cause significant error
 Vibrational temperatures:     49.80    89.74   113.03   167.26   170.51
          (Kelvin)            235.41   288.20   294.72   340.25   354.58
                              388.87   495.61   544.51   567.84   583.08
                              632.32   658.36   670.61   686.04   733.98
                              821.12   951.76   979.82  1017.45  1027.08
                             1060.47  1122.26  1166.44  1170.03  1217.20
                             1248.80  1307.47  1314.56  1354.67  1369.88
                             1438.78  1459.13  1462.71  1520.36  1584.54
                             1627.39  1639.27  1664.04  1701.74  1726.50
                             1771.57  1820.33  1845.75  1904.72  1948.45
                             1958.66  1971.81  1999.23  2026.15  2048.95
                             2130.82  2133.21  2141.59  2151.94  2166.11
                             2174.62  2317.21  2344.13  2363.07  2450.51
                             2510.81  4365.90  4367.91  4374.25  4462.75
                             4474.45  4478.55  4483.08  4560.80  4581.39
                             4602.37  4606.26  4610.58

 Zero-point correction=                           0.220356 (Hartree/Particle)
 Thermal correction to Energy=                    0.234488
 Thermal correction to Enthalpy=                  0.235432
 Thermal correction to Gibbs Free Energy=         0.178950
 Sum of electronic and zero-point Energies=           -728.256150
 Sum of electronic and thermal Energies=              -728.242018
 Sum of electronic and thermal Enthalpies=            -728.241074
 Sum of electronic and thermal Free Energies=         -728.297557

                     E (Thermal)             CV                S
                      KCal/Mol        Cal/Mol-Kelvin    Cal/Mol-Kelvin
 Total                  147.144             54.220            118.878
 Electronic               0.000              0.000              0.000
 Translational            0.889              2.981             42.015
 Rotational               0.889              2.981             32.474
 Vibrational            145.366             48.259             44.389
 Vibration     1          0.594              1.983              5.546
 Vibration     2          0.597              1.972              4.381
 Vibration     3          0.600              1.964              3.926
 Vibration     4          0.608              1.936              3.162
 Vibration     5          0.609              1.934              3.124
 Vibration     6          0.623              1.887              2.508
 Vibration     7          0.638              1.839              2.130
 Vibration     8          0.640              1.833              2.089
 Vibration     9          0.655              1.785              1.829
 Vibration    10          0.661              1.769              1.756
 Vibration    11          0.674              1.728              1.594
 Vibration    12          0.723              1.587              1.191
 Vibration    13          0.749              1.516              1.045
 Vibration    14          0.762              1.482              0.982
 Vibration    15          0.770              1.459              0.944
 Vibration    16          0.800              1.384              0.828
 Vibration    17          0.816              1.344              0.773
 Vibration    18          0.823              1.325              0.749
 Vibration    19          0.833              1.301              0.719
 Vibration    20          0.865              1.228              0.633
 Vibration    21          0.927              1.095              0.503

 Optimization completed.
    -- Stationary point found.
 Normal termination of Gaussian 16 at Mon Jan  8 02:14:13 2024.
