 Gaussian 16, Revision A.03,
 Gaussian 16:  ES64L-G16RevA.03 25-Dec-2016

 --------------------------------------
 #P UB3LYP/6-311++G(d,p) nosym opt freq
 --------------------------------------

 --------
 Oxidized
 --------
 Symbolic Z-matrix:
 Charge =  0 Multiplicity = 1

 SCF Done:  E(UB3LYP) =  -846.260295640     A.U. after   16 cycles
 SCF Done:  E(UB3LYP) =  -846.263334452     A.U. after   13 cycles
 SCF Done:  E(UB3LYP) =  -846.263469015     A.U. after   11 cycles
 SCF Done:  E(UB3LYP) =  -846.263475903     A.U. after   10 cycles
 Optimization completed.
    -- Stationary point found.
 Normal termination of Gaussian 16 at Thu Dec 21 05:55:42 2023.

 ----------------------------------------------------------------------
 #P Geom=AllCheck Guess=TCheck SCRF=Check GenChk UB3LYP/6-311++G(d,p) F
 req
 ----------------------------------------------------------------------

 Structure from the checkpoint file:  "132.chk"
 --------
 Oxidized
 --------
 Charge =  0 Multiplicity = 1

                          Input orientation:
 ---------------------------------------------------------------------
 Center     Atomic      Atomic             Coordinates (Angstroms)
 Number     Number       Type             X           Y           Z
 ---------------------------------------------------------------------
      1          6           0        6.888924   -1.634504   -0.257246
      2          6           0        7.473878   -0.674608   -1.085232
      3          6           0        6.655209    0.329540   -1.648724
      4          6           0        5.289721    0.328854   -1.359635
      5          6           0        4.710549   -0.632002   -0.532345
      6          6           0        5.524075   -1.631090    0.028805
      7          6           0        4.960148   -2.683675    0.920349
      8          6           0        3.495627   -2.630665    1.190814
      9          6           0        2.681732   -1.631780    0.629837
     10          6           0        3.245776   -0.578980   -0.261813
     11          6           0        2.916477   -3.592039    2.018458
     12          6           0        1.550728   -3.593425    2.308001
     13          6           0        0.733348   -2.588641    1.743765
     14          6           0        1.317453   -1.628640    0.915891
     15          8           0        5.667828   -3.552570    1.408291
     16          8           0        2.538178    0.289801   -0.749711
     17          6           0        0.987957   -4.664543    3.212324
     18          6           0       -0.754153   -2.511182    2.001714
     19          6           0        8.959031   -0.736456   -1.354079
     20          6           0        7.200859    1.408914   -2.555599
     21          1           0        7.496294   -2.414712    0.186760
     22          1           0        4.642664    1.090238   -1.781385
     23          1           0        3.563929   -4.352501    2.439486
     24          1           0        0.708873   -0.848314    0.472055
     25          1           0        1.776305   -5.342218    3.542397
     26          1           0        0.224957   -5.261963    2.703968
     27          1           0        0.521072   -4.235471    4.104183
     28          1           0       -1.111811   -3.302673    2.658158
     29          1           0       -1.311666   -2.578707    1.062613
     30          1           0       -1.015721   -1.552947    2.460697
     31          1           0        9.409690   -1.580455   -0.830381
     32          1           0        9.467690    0.173494   -1.021264
     33          1           0        9.171487   -0.853343   -2.421186
     34          1           0        8.273756    1.322273   -2.718926
     35          1           0        7.006071    2.399973   -2.134698
     36          1           0        6.710365    1.374604   -3.533110
 ---------------------------------------------------------------------

 SCF Done:  E(UB3LYP) =  -846.263475903     A.U. after    1 cycles

 Alpha  occ. eigenvalues --  -19.11623 -19.11550 -10.26877 -10.26823 -10.20289
 Alpha  occ. eigenvalues --  -10.20289 -10.20241 -10.20241 -10.19682 -10.19681
 Alpha  occ. eigenvalues --  -10.19606 -10.19606 -10.18679 -10.18679 -10.18677
 Alpha  occ. eigenvalues --  -10.18677 -10.18013 -10.18013 -10.17955 -10.17955
 Alpha  occ. eigenvalues --   -1.05024  -1.04821  -0.88915  -0.88085  -0.82506
 Alpha  occ. eigenvalues --   -0.79520  -0.78485  -0.78451  -0.72944  -0.72216
 Alpha  occ. eigenvalues --   -0.72072  -0.68741  -0.65673  -0.63273  -0.60993
 Alpha  occ. eigenvalues --   -0.60585  -0.57720  -0.53494  -0.52814  -0.50548
 Alpha  occ. eigenvalues --   -0.48295  -0.47070  -0.46320  -0.45321  -0.44696
 Alpha  occ. eigenvalues --   -0.44265  -0.44210  -0.43899  -0.43589  -0.43316
 Alpha  occ. eigenvalues --   -0.42689  -0.42086  -0.42054  -0.40390  -0.40055
 Alpha  occ. eigenvalues --   -0.40023  -0.39896  -0.39853  -0.37424  -0.36740
 Alpha  occ. eigenvalues --   -0.36037  -0.35963  -0.35224  -0.34408  -0.27284
 Alpha  occ. eigenvalues --   -0.26905  -0.26721  -0.26331  -0.26063  -0.25526
 Alpha virt. eigenvalues --   -0.10489  -0.06527  -0.02766  -0.02017  -0.01276
 Alpha virt. eigenvalues --   -0.01109   0.00715   0.00985   0.01245   0.02239
 Alpha virt. eigenvalues --    0.02540   0.02678   0.02689   0.03481   0.03596

  Beta  occ. eigenvalues --  -19.11623 -19.11550 -10.26877 -10.26823 -10.20289
  Beta  occ. eigenvalues --  -10.20289 -10.20241 -10.20241 -10.19682 -10.19681
  Beta  occ. eigenvalues --  -10.19606 -10.19606 -10.18679 -10.18679 -10.18677
  Beta  occ. eigenvalues --  -10.18677 -10.18013 -10.18013 -10.17955 -10.17955
  Beta  occ. eigenvalues --   -1.05024  -1.04821  -0.88915  -0.88085  -0.82506
  Beta  occ. eigenvalues --   -0.79520  -0.78485  -0.78451  -0.72944  -0.72216
  Beta  occ. eigenvalues --   -0.72072  -0.68741  -0.65673  -0.63273  -0.60993
  Beta  occ. eigenvalues --   -0.60585  -0.57720  -0.53494  -0.52814  -0.50548
  Beta  occ. eigenvalues --   -0.48295  -0.47070  -0.46320  -0.45321  -0.44696
  Beta  occ. eigenvalues --   -0.44265  -0.44210  -0.43899  -0.43589  -0.43316
  Beta  occ. eigenvalues --   -0.42689  -0.42086  -0.42054  -0.40390  -0.40055
  Beta  occ. eigenvalues --   -0.40023  -0.39896  -0.39853  -0.37424  -0.36740
  Beta  occ. eigenvalues --   -0.36037  -0.35963  -0.35224  -0.34408  -0.27284
  Beta  occ. eigenvalues --   -0.26905  -0.26721  -0.26331  -0.26063  -0.25526
  Beta virt. eigenvalues --   -0.10489  -0.06527  -0.02766  -0.02017  -0.01276
  Beta virt. eigenvalues --   -0.01109   0.00715   0.00985   0.01245   0.02239
  Beta virt. eigenvalues --    0.02540   0.02678   0.02689   0.03481   0.03596

 Mulliken charges and spin densities:
               1          2
     1  C   -0.154835   0.000000
     2  C   -0.357857  -0.000000
     3  C    0.425283   0.000000
     4  C    0.281622   0.000000
     5  C    0.303306   0.000000
     6  C    0.058432   0.000000
     7  C   -0.758394  -0.000000
     8  C    0.058444   0.000000
     9  C    0.303172  -0.000000
    10  C   -0.611542   0.000000
    11  C   -0.154967   0.000000
    12  C   -0.357740   0.000000
    13  C    0.425257  -0.000000
    14  C    0.281704  -0.000000
    15  O   -0.214569   0.000000
    16  O   -0.219079   0.000000
    17  C   -0.501571   0.000000
    18  C   -0.460599   0.000000
    19  C   -0.501568  -0.000000
    20  C   -0.460617   0.000000
    21  H    0.138824  -0.000000
    22  H    0.166004  -0.000000
    23  H    0.138825  -0.000000
    24  H    0.166004   0.000000
    25  H    0.172092  -0.000000
    26  H    0.162662   0.000000
    27  H    0.162676   0.000000
    28  H    0.152086  -0.000000
    29  H    0.176855  -0.000000
    30  H    0.176857  -0.000000
    31  H    0.172089   0.000000
    32  H    0.162676  -0.000000
    33  H    0.162671   0.000000
    34  H    0.152079  -0.000000
    35  H    0.176870   0.000000
    36  H    0.176850   0.000000
 Sum of Mulliken charges =  -0.00000  -0.00000

 Dipole moment (field-independent basis, Debye):
    X=             -0.0995    Y=              0.1222    Z=             -0.0686  Tot=              0.1719
 Quadrupole moment (field-independent basis, Debye-Ang):
   XX=            -99.4194   YY=           -118.8983   ZZ=           -113.1710
   XY=             16.5000   XZ=            -16.3539   YZ=             -3.9359

  Exact polarizability: 302.588  25.139 210.215 -57.990 -74.809 182.624
 Approx polarizability: 439.961 -18.712 354.767 -39.217-117.338 283.822

 ******    2 imaginary frequencies (negative Signs) ******

                      1                      2                      3
                      A                      A                      A
 Frequencies --   -139.6023              -139.3825                31.4022
 Red. masses --      1.0210                 1.0211                 5.4289
 Frc consts  --      0.0117                 0.0117                 0.0032
 IR Inten    --      0.1617                 0.1639                 4.8106

                      4                      5                      6
                      A                      A                      A
 Frequencies --     63.1756                84.4631               118.1469
 Red. masses --      3.1354                 4.5646                 5.9672
 Frc consts  --      0.0074                 0.0192                 0.0491
 IR Inten    --      0.0000                 0.0023                 1.3834

                      7                      8                      9
                      A                      A                      A
 Frequencies --    132.1154               141.8100               168.5456
 Red. masses --      3.1380                 3.9334                 1.0748
 Frc consts  --      0.0323                 0.0466                 0.0180
 IR Inten    --      0.0002                 1.5331                 0.7397

                     10                     11                     12
                      A                      A                      A
 Frequencies --    172.8791               208.9700               217.8048
 Red. masses --      1.1353                 3.8868                 3.5290
 Frc consts  --      0.0200                 0.1000                 0.0986
 IR Inten    --      0.0095                 0.0003                 0.0000

                     13                     14                     15
                      A                      A                      A
 Frequencies --    225.6166               274.4769               291.8455
 Red. masses --      4.9063                 3.8541                 4.2862
 Frc consts  --      0.1471                 0.1711                 0.2151
 IR Inten    --      0.0190                 0.0218                 5.9986

                     16                     17                     18
                      A                      A                      A
 Frequencies --    316.3023               338.1943               356.8775
 Red. masses --      2.7035                 3.2658                 6.4968
 Frc consts  --      0.1594                 0.2201                 0.4875
 IR Inten    --      2.6677                 0.0206                 0.2170

                     19                     20                     21
                      A                      A                      A
 Frequencies --    360.7242               375.1945               385.5427
 Red. masses --      4.8631                 9.2547                 3.6723
 Frc consts  --      0.3728                 0.7676                 0.3216
 IR Inten    --      0.0002                21.4658                 0.3199

                     22                     23                     24
                      A                      A                      A
 Frequencies --    442.2280               452.8539               472.4700
 Red. masses --      2.8666                 2.8808                12.7534
 Frc consts  --      0.3303                 0.3481                 1.6773
 IR Inten    --      9.4066                 0.0000                 0.0011

                     25                     26                     27
                      A                      A                      A
 Frequencies --    489.1277               516.8622               571.7623
 Red. masses --      3.4231                 6.2265                 3.6886
 Frc consts  --      0.4825                 0.9800                 0.7105
 IR Inten    --      0.9120                 0.0130                 2.2381

                     28                     29                     30
                      A                      A                      A
 Frequencies --    595.0710               601.0123               608.2535
 Red. masses --      4.7447                 5.7694                 6.2885
 Frc consts  --      0.9899                 1.2278                 1.3708
 IR Inten    --      0.0001                 1.3529                22.0453

                     31                     32                     33
                      A                      A                      A
 Frequencies --    690.1194               715.5301               721.2160
 Red. masses --      3.5775                 6.4270                 6.2848
 Frc consts  --      1.0039                 1.9387                 1.9261
 IR Inten    --      0.0108                 0.4344                 1.5651

                     34                     35                     36
                      A                      A                      A
 Frequencies --    724.4336               751.0644               759.4854
 Red. masses --      3.6460                 4.8600                 5.6485
 Frc consts  --      1.1274                 1.6153                 1.9197
 IR Inten    --      0.0001                 6.1447                24.9065

                     37                     38                     39
                      A                      A                      A
 Frequencies --    764.0518               797.8042               808.2304
 Red. masses --      3.8422                 6.0788                 5.4578
 Frc consts  --      1.3215                 2.2796                 2.1006
 IR Inten    --      0.2282                 0.5679                 0.0072

                     40                     41                     42
                      A                      A                      A
 Frequencies --    929.8762               936.9484               941.1507
 Red. masses --      1.3087                 1.3110                 1.4247
 Frc consts  --      0.6667                 0.6781                 0.7435
 IR Inten    --      0.0003                 0.0006                 7.9664

                     43                     44                     45
                      A                      A                      A
 Frequencies --    946.0293               984.8680              1008.4424
 Red. masses --      1.4073                 2.0321                 2.0498
 Frc consts  --      0.7421                 1.1613                 1.2282
 IR Inten    --     11.9748                70.5975                 9.5472

                     46                     47                     48
                      A                      A                      A
 Frequencies --   1018.7084              1024.0975              1037.2669
 Red. masses --      1.6798                 1.5536                 1.8043
 Frc consts  --      1.0271                 0.9600                 1.1438
 IR Inten    --      0.7966                24.2536                13.4393

                     49                     50                     51
                      A                      A                      A
 Frequencies --   1040.9288              1048.5105              1049.2608
 Red. masses --      2.2053                 1.4682                 1.4731
 Frc consts  --      1.4078                 0.9510                 0.9555
 IR Inten    --      5.8502                 0.0001                13.5193

                     52                     53                     54
                      A                      A                      A
 Frequencies --   1066.9326              1067.0713              1144.7217
 Red. masses --      1.6278                 1.6306                 6.2632
 Frc consts  --      1.0918                 1.0939                 4.8355
 IR Inten    --      0.2743                 0.0351                 0.1391

                     55                     56                     57
                      A                      A                      A
 Frequencies --   1177.2045              1205.1610              1217.2904
 Red. masses --      1.5273                 5.4887                 1.9448
 Frc consts  --      1.2470                 4.6969                 1.6979
 IR Inten    --      0.0194                 0.4805                80.2580

                     58                     59                     60
                      A                      A                      A
 Frequencies --   1227.0241              1265.3088              1275.9482
 Red. masses --      4.7639                 6.4249                 1.3483
 Frc consts  --      4.2259                 6.0606                 1.2933
 IR Inten    --     10.4980                 0.1069                 2.2106

                     61                     62                     63
                      A                      A                      A
 Frequencies --   1283.1726              1320.0938              1346.6647
 Red. masses --      1.3072                 8.3378                 7.4996
 Frc consts  --      1.2681                 8.5608                 8.0132
 IR Inten    --      2.8915               649.3294               282.0083

                     64                     65                     66
                      A                      A                      A
 Frequencies --   1353.8675              1402.8792              1408.6969
 Red. masses --      7.4166                 1.7234                 1.2696
 Frc consts  --      8.0095                 1.9983                 1.4844
 IR Inten    --      1.1531                16.0817                 0.2020

                     67                     68                     69
                      A                      A                      A
 Frequencies --   1417.9686              1418.1974              1422.1253
 Red. masses --      1.2787                 1.2379                 2.3583
 Frc consts  --      1.5148                 1.4669                 2.8101
 IR Inten    --      0.1513                 6.8187                 0.0381

                     70                     71                     72
                      A                      A                      A
 Frequencies --   1441.3261              1481.1971              1481.5789
 Red. masses --      5.0296                 1.1528                 1.1567
 Frc consts  --      6.1561                 1.4901                 1.4960
 IR Inten    --      0.1088                 2.7593                 0.4500

                     73                     74                     75
                      A                      A                      A
 Frequencies --   1481.9827              1482.0387              1501.1151
 Red. masses --      1.0440                 1.0436                 1.0432
 Frc consts  --      1.3510                 1.3505                 1.3850
 IR Inten    --      5.5173                23.6975                 0.0006

                     76                     77                     78
                      A                      A                      A
 Frequencies --   1501.1861              1505.6157              1506.7375
 Red. masses --      1.0432                 1.1010                 1.1310
 Frc consts  --      1.3851                 1.4706                 1.5128
 IR Inten    --      0.0015                10.6446                 0.2595

                     79                     80                     81
                      A                      A                      A
 Frequencies --   1518.1535              1525.7704              1588.7069
 Red. masses --      2.9872                 2.8409                 6.5771
 Frc consts  --      4.0564                 3.8966                 9.7807
 IR Inten    --      0.0579                 0.1125                22.3216

                     82                     83                     84
                      A                      A                      A
 Frequencies --   1602.9957              1627.4175              1636.8640
 Red. masses --      7.7031                 6.6629                 6.1428
 Frc consts  --     11.6622                10.3970                 9.6971
 IR Inten    --      0.0993               274.5916                 0.0001

                     85                     86                     87
                      A                      A                      A
 Frequencies --   1710.5235              1724.8729              3025.0969
 Red. masses --     12.7771                11.6121                 1.0383
 Frc consts  --     22.0262                20.3552                 5.5981
 IR Inten    --      0.3741               276.6462                39.3844

                     88                     89                     90
                      A                      A                      A
 Frequencies --   3025.1768              3031.1986              3031.2826
 Red. masses --      1.0383                 1.0409                 1.0409
 Frc consts  --      5.5984                 5.6348                 5.6353
 IR Inten    --      7.9841                31.0743                13.8402

                     91                     92                     93
                      A                      A                      A
 Frequencies --   3072.7244              3072.7821              3075.8547
 Red. masses --      1.1000                 1.1000                 1.1000
 Frc consts  --      6.1191                 6.1193                 6.1317
 IR Inten    --     13.2447                23.6214                 4.3715

                     94                     95                     96
                      A                      A                      A
 Frequencies --   3075.8764              3110.6112              3110.6545
 Red. masses --      1.1000                 1.0995                 1.0995
 Frc consts  --      6.1318                 6.2680                 6.2681
 IR Inten    --      8.0820                 6.7152                23.6576

                     97                     98                     99
                      A                      A                      A
 Frequencies --   3132.6093              3132.7987              3178.0789
 Red. masses --      1.0962                 1.0962                 1.0900
 Frc consts  --      6.3381                 6.3386                 6.4865
 IR Inten    --     20.6851                14.4143                 4.8681

                    100                    101                    102
                      A                      A                      A
 Frequencies --   3178.4910              3185.3251              3185.8290
 Red. masses --      1.0902                 1.0901                 1.0903
 Frc consts  --      6.4895                 6.5167                 6.5201
 IR Inten    --      1.4455                 7.8499                 1.3053

 - Thermochemistry -
 -------------------
 Temperature   298.150 Kelvin.  Pressure   1.00000 Atm.
 Atom     1 has atomic number  6 and mass  12.00000

 Molecular mass:   264.11503 amu.
 Principal axes and moments of inertia in atomic units:
                           1         2         3
     Eigenvalues --  2165.533629309.68251**********
           X            0.79783  -0.57901   0.16800
           Y            0.39316   0.71093   0.58311
           Z           -0.45706  -0.39917   0.79484
 This molecule is an asymmetric top.
 Rotational symmetry number  1.
 Warning -- assumption of classical behavior for rotation
           may cause significant error
 Rotational temperatures (Kelvin)      0.04000     0.00930     0.00758
 Rotational constants (GHZ):           0.83339     0.19386     0.15789
    2 imaginary frequencies ignored.
 Zero-point vibrational energy     757682.1 (Joules/Mol)
                                  181.09036 (Kcal/Mol)
 Warning -- explicit consideration of  28 degrees of freedom as
           vibrations may cause significant error
 Vibrational temperatures:     45.18    90.90   121.52   169.99   190.08
          (Kelvin)            204.03   242.50   248.73   300.66   313.37
                              324.61   394.91   419.90   455.09   486.59
                              513.47   519.00   539.82   554.71   636.27
                              651.56   679.78   703.75   743.65   822.64
                              856.17   864.72   875.14   992.93  1029.49
                             1037.67  1042.30  1080.61  1092.73  1099.30
                             1147.86  1162.86  1337.88  1348.06  1354.11
                             1361.13  1417.01  1450.92  1465.69  1473.45
                             1492.40  1497.66  1508.57  1509.65  1535.08
                             1535.28  1647.00  1693.73  1733.96  1751.41
                             1765.41  1820.50  1835.80  1846.20  1899.32
                             1937.55  1947.91  2018.43  2026.80  2040.14
                             2040.47  2046.12  2073.75  2131.11  2131.66
                             2132.24  2132.32  2159.77  2159.87  2166.25
                             2167.86  2184.28  2195.24  2285.79  2306.35
                             2341.49  2355.08  2461.06  2481.71  4352.44
                             4352.55  4361.22  4361.34  4420.97  4421.05
                             4425.47  4425.50  4475.48  4475.54  4507.13
                             4507.40  4572.55  4573.14  4582.97  4583.70

 Zero-point correction=                           0.288586 (Hartree/Particle)
 Thermal correction to Energy=                    0.305241
 Thermal correction to Enthalpy=                  0.306185
 Thermal correction to Gibbs Free Energy=         0.244634
 Sum of electronic and zero-point Energies=           -845.974890
 Sum of electronic and thermal Energies=              -845.958235
 Sum of electronic and thermal Enthalpies=            -845.957291
 Sum of electronic and thermal Free Energies=         -846.018842

                     E (Thermal)             CV                S
                      KCal/Mol        Cal/Mol-Kelvin    Cal/Mol-Kelvin
 Total                  191.541             65.775            129.545
 Electronic               0.000              0.000              0.000
 Translational            0.889              2.981             42.613
 Rotational               0.889              2.981             33.799
 Vibrational            189.764             59.814             53.133
 Vibration     1          0.594              1.983              5.739
 Vibration     2          0.597              1.972              4.355
 Vibration     3          0.601              1.960              3.784
 Vibration     4          0.608              1.934              3.130
 Vibration     5          0.612              1.921              2.915
 Vibration     6          0.615              1.911              2.779
 Vibration     7          0.625              1.881              2.452
 Vibration     8          0.626              1.876              2.404
 Vibration     9          0.642              1.827              2.053
 Vibration    10          0.646              1.814              1.977
 Vibration    11          0.650              1.802              1.914
 Vibration    12          0.677              1.720              1.568
 Vibration    13          0.687              1.689              1.463
 Vibration    14          0.703              1.642              1.329
 Vibration    15          0.719              1.599              1.221
 Vibration    16          0.732              1.561              1.136
 Vibration    17          0.735              1.553              1.119
 Vibration    18          0.746              1.523              1.058
 Vibration    19          0.754              1.501              1.017
 Vibration    20          0.802              1.378              0.820
 Vibration    21          0.811              1.355              0.787
 Vibration    22          0.829              1.311              0.731
 Vibration    23          0.845              1.274              0.686
 Vibration    24          0.872              1.213              0.617
 Vibration    25          0.928              1.092              0.501
 Vibration    26          0.953              1.042              0.458
 Vibration    27          0.959              1.030              0.448
 Vibration    28          0.967              1.014              0.436

 Optimization completed.
    -- Stationary point found.
 Normal termination of Gaussian 16 at Thu Dec 21 07:00:42 2023.
