 Q-Chem 5.4, Q-Chem, Inc., Pleasanton, CA (2021)
 Q-Chem 5.4.0 for Intel X86 EM64T Linux

User input:
--------------------------------------------------------------
$molecule
-2 1
C                 -0.3928060000      1.1227740000     -0.3445440000
C                 -1.4317680000      0.1339260000     -0.5592240000
C                 -1.2600400000     -1.2154510000     -0.3567180000
C                 -0.0306030000     -1.8041760000      0.1124840000
C                  1.0075380000     -0.8685700000      0.3687190000
C                  0.8476850000      0.5573400000      0.1881330000
O                 -0.6306080000      2.3581630000     -0.5568120000
O                  0.0985550000     -3.0953980000      0.2411780000
C                  1.8755250000      1.4843380000      0.6558190000
C                  2.5288810000      1.2095250000      2.0338880000
O                  2.2265930000      2.5402580000      0.1086980000
H                 -2.3813780000      0.5253300000     -0.9258120000
H                 -2.0748200000     -1.9105070000     -0.5692600000
H                  2.1249110000      0.3378150000      2.5482620000
H                  2.3483630000      2.1053670000      2.6398960000
H                  3.6176260000      1.0985380000      1.9343760000
C                  2.3534740000     -1.4891420000      0.6721200000
H                  2.4148930000     -2.4463430000      0.1403610000
H                  2.5038410000     -1.7393270000      1.7386790000
H                  3.1875280000     -0.8462210000      0.3688370000
$end
$rem
MAX_SCF_CYCLES=200
BASIS  =  6-311++G(d,p)
GUI  =  2
JOB_TYPE  =  SP
METHOD  =  B3LYP
SOLVENT_METHOD = PCM
$end
$pcm
theory = CPCM
$end
$solvent
dielectric 37.219
opticaldielectric 1.43
$end

--------------------------------------------------------------

             Standard Nuclear Orientation (Angstroms)
    I     Atom           X                Y                Z
 ----------------------------------------------------------------
    1      C      -0.3928060000     1.1227740000    -0.3445440000
    2      C      -1.4317680000     0.1339260000    -0.5592240000
    3      C      -1.2600400000    -1.2154510000    -0.3567180000
    4      C      -0.0306030000    -1.8041760000     0.1124840000
    5      C       1.0075380000    -0.8685700000     0.3687190000
    6      C       0.8476850000     0.5573400000     0.1881330000
    7      O      -0.6306080000     2.3581630000    -0.5568120000
    8      O       0.0985550000    -3.0953980000     0.2411780000
    9      C       1.8755250000     1.4843380000     0.6558190000
   10      C       2.5288810000     1.2095250000     2.0338880000
   11      O       2.2265930000     2.5402580000     0.1086980000
   12      H      -2.3813780000     0.5253300000    -0.9258120000
   13      H      -2.0748200000    -1.9105070000    -0.5692600000
   14      H       2.1249110000     0.3378150000     2.5482620000
   15      H       2.3483630000     2.1053670000     2.6398960000
   16      H       3.6176260000     1.0985380000     1.9343760000
   17      C       2.3534740000    -1.4891420000     0.6721200000
   18      H       2.4148930000    -2.4463430000     0.1403610000
   19      H       2.5038410000    -1.7393270000     1.7386790000
   20      H       3.1875280000    -0.8462210000     0.3688370000
 ----------------------------------------------------------------

    9    -573.8521497209      5.45e-06  Convergence criterion met
 Total energy in the final basis set =     -573.8521497209

                    Orbital Energies (a.u.)
 --------------------------------------------------------------

 Alpha MOs
 -- Occupied --
-19.0804 -19.0297 -19.0182 -10.2307 -10.1892 -10.1690 -10.1469 -10.1375
-10.1356 -10.1346 -10.1338 -10.1295  -1.0061  -0.9490  -0.9282  -0.7895
 -0.7399  -0.7060  -0.6765  -0.6321  -0.5841  -0.5273  -0.4918  -0.4523
 -0.4396  -0.4240  -0.4180  -0.3968  -0.3943  -0.3834  -0.3688  -0.3626
 -0.3587  -0.3508  -0.3344  -0.3239  -0.3150  -0.3118  -0.2390  -0.2322
 -0.2137  -0.2020  -0.1943  -0.1266

          Ground-State Mulliken Net Atomic Charges

     Atom                 Charge (a.u.)
  ----------------------------------------
      1 C                    -0.856224
      2 C                     0.010077
      3 C                     0.004428
      4 C                    -0.544798
      5 C                     0.478794
      6 C                     0.616329
      7 O                    -0.662269
      8 O                    -0.746891
      9 C                     0.175356
     10 C                    -0.642426
     11 O                    -0.434009
     12 H                     0.152896
     13 H                     0.156823
     14 H                     0.157798
     15 H                     0.182279
     16 H                     0.176637
     17 C                    -0.683841
     18 H                     0.156375
     19 H                     0.154122
     20 H                     0.148544
  ----------------------------------------
  Sum of atomic charges =    -2.000000

                    Cartesian Multipole Moments
 -----------------------------------------------------------------
    Charge (ESU x 10^10)
                -9.6064
    Dipole Moment (Debye)
         X      -1.7860      Y      -1.1144      Z       1.9480
       Tot       2.8682
    Quadrupole Moments (Debye-Ang)
        XX     -88.5136     XY      -5.5482     YY    -153.2900
        XZ       0.7139     YZ       9.4699     ZZ     -79.1550

 Total job time:  19.51s(wall), 147.43s(cpu)
        *  Thank you very much for using Q-Chem.  Have a nice day.  *
