 Gaussian 16, Revision A.03,
 Gaussian 16:  ES64L-G16RevA.03 25-Dec-2016

 ----------------------------------------------------------------------
 #P UB3LYP/6-311++G(d,p) nosym opt freq SCRF=(PCM,Solvent=n,n-DiMethylF
 ormamide)
 ----------------------------------------------------------------------

 -------
 Radical
 -------
 Symbolic Z-matrix:
 Charge = -1 Multiplicity = 2

 SCF Done:  E(UB3LYP) =  -1530.07519748     A.U. after   19 cycles
 SCF Done:  E(UB3LYP) =  -1530.07540416     A.U. after   16 cycles
 SCF Done:  E(UB3LYP) =  -1530.07581172     A.U. after   15 cycles
 SCF Done:  E(UB3LYP) =  -1530.07594014     A.U. after   14 cycles
 SCF Done:  E(UB3LYP) =  -1530.07597084     A.U. after   14 cycles
 SCF Done:  E(UB3LYP) =  -1530.07598545     A.U. after   14 cycles
 SCF Done:  E(UB3LYP) =  -1530.07598928     A.U. after   13 cycles
 SCF Done:  E(UB3LYP) =  -1530.07599169     A.U. after   13 cycles
 SCF Done:  E(UB3LYP) =  -1530.07599200     A.U. after   11 cycles
 Optimization completed.
    -- Stationary point found.
 Normal termination of Gaussian 16 at Sat Feb 10 10:40:01 2024.

 ----------------------------------------------------------------------
 #P Geom=AllCheck Guess=TCheck SCRF=Check GenChk UB3LYP/6-311++G(d,p) F
 req
 ----------------------------------------------------------------------

 Structure from the checkpoint file:  "022-rad.chk"
 -------
 Radical
 -------
 Charge = -1 Multiplicity = 2

                          Input orientation:
 ---------------------------------------------------------------------
 Center     Atomic      Atomic             Coordinates (Angstroms)
 Number     Number       Type             X           Y           Z
 ---------------------------------------------------------------------
      1          6           0       -3.510293    0.207242    0.421543
      2          8           0       -2.697767    0.569571   -0.712528
      3          6           0       -1.364353    0.297387   -0.598978
      4          6           0       -0.450057    1.321042   -0.553333
      5         17           0       -1.010472    2.987007   -0.560185
      6          6           0        0.984239    1.116196   -0.521989
      7          8           0        1.819270    2.056206   -0.528198
      8          6           0        1.410260   -0.281347   -0.483066
      9          6           0        0.496250   -1.304879   -0.535576
     10         17           0        1.056465   -2.970792   -0.521958
     11          6           0       -0.935388   -1.099542   -0.627043
     12          8           0       -1.765843   -2.038541   -0.726135
     13          8           0        2.749034   -0.551735   -0.485565
     14          6           0        3.456188   -0.225996    0.727244
     15          1           0       -3.205714    0.783041    1.300532
     16          1           0       -4.533427    0.466255    0.152841
     17          1           0       -3.436317   -0.861472    0.623205
     18          1           0        3.360660    0.835528    0.956328
     19          1           0        3.077048   -0.830411    1.556577
     20          1           0        4.500219   -0.474759    0.542189
 ---------------------------------------------------------------------

 SCF Done:  E(UB3LYP) =  -1530.07599200     A.U. after    2 cycles

 Alpha  occ. eigenvalues -- -101.55302-101.55299 -19.14780 -19.14765 -19.09172
 Alpha  occ. eigenvalues --  -19.09169 -10.24269 -10.24265 -10.23846 -10.23836
 Alpha  occ. eigenvalues --  -10.22867 -10.22861 -10.21448 -10.21436  -9.46750
 Alpha  occ. eigenvalues --   -9.46746  -7.23197  -7.23194  -7.22268  -7.22264
 Alpha  occ. eigenvalues --   -7.22182  -7.22179  -1.06679  -1.06453  -1.01350
 Alpha  occ. eigenvalues --   -1.01343  -0.87990  -0.86678  -0.80834  -0.75056
 Alpha  occ. eigenvalues --   -0.70844  -0.69489  -0.66525  -0.59183  -0.58586
 Alpha  occ. eigenvalues --   -0.53506  -0.51203  -0.50529  -0.47617  -0.46399
 Alpha  occ. eigenvalues --   -0.45297  -0.44659  -0.43670  -0.43451  -0.42262
 Alpha  occ. eigenvalues --   -0.41746  -0.39647  -0.39598  -0.36976  -0.36221
 Alpha  occ. eigenvalues --   -0.34512  -0.34233  -0.31869  -0.31660  -0.30343
 Alpha  occ. eigenvalues --   -0.29108  -0.27554  -0.25804  -0.25512  -0.23880
 Alpha  occ. eigenvalues --   -0.17424
 Alpha virt. eigenvalues --   -0.01718  -0.00947   0.00733   0.00800   0.01296
 Alpha virt. eigenvalues --    0.02066   0.03117   0.03529   0.03620   0.03678
 Alpha virt. eigenvalues --    0.04277   0.05475   0.05855   0.06087   0.06737

  Beta  occ. eigenvalues -- -101.55300-101.55297 -19.14755 -19.14740 -19.08493
  Beta  occ. eigenvalues --  -19.08490 -10.24120 -10.24117 -10.23695 -10.23684
  Beta  occ. eigenvalues --  -10.22804 -10.22798 -10.21437 -10.21424  -9.46748
  Beta  occ. eigenvalues --   -9.46744  -7.23201  -7.23197  -7.22256  -7.22252
  Beta  occ. eigenvalues --   -7.22182  -7.22178  -1.06509  -1.06313  -1.00250
  Beta  occ. eigenvalues --   -1.00196  -0.87723  -0.86578  -0.80462  -0.74807
  Beta  occ. eigenvalues --   -0.70728  -0.68862  -0.66082  -0.58829  -0.58236
  Beta  occ. eigenvalues --   -0.53317  -0.51081  -0.50295  -0.47042  -0.46153
  Beta  occ. eigenvalues --   -0.45193  -0.44491  -0.43321  -0.43308  -0.41598
  Beta  occ. eigenvalues --   -0.40685  -0.39322  -0.37814  -0.36499  -0.35863
  Beta  occ. eigenvalues --   -0.33674  -0.33316  -0.31691  -0.31620  -0.30052
  Beta  occ. eigenvalues --   -0.28772  -0.25251  -0.25135  -0.24952  -0.23309
  Beta virt. eigenvalues --   -0.10332  -0.01168  -0.00124   0.00819   0.01314
  Beta virt. eigenvalues --    0.01331   0.03132   0.03571   0.03664   0.03717
  Beta virt. eigenvalues --    0.04066   0.04446   0.05505   0.05934   0.06135

 Mulliken charges and spin densities:
               1          2
     1  C   -0.303699   0.004927
     2  O   -0.169085   0.000091
     3  C   -1.620776   0.142078
     4  C    1.923317   0.018943
     5  Cl   0.250430   0.003131
     6  C   -0.622908   0.082255
     7  O   -0.437574   0.247501
     8  C   -1.626816   0.142825
     9  C    1.930669   0.018191
    10  Cl   0.250245   0.003153
    11  C   -0.630521   0.083215
    12  O   -0.437429   0.247610
    13  O   -0.168284  -0.000080
    14  C   -0.304601   0.004988
    15  H    0.139606   0.000486
    16  H    0.167220   0.000984
    17  H    0.176759  -0.000870
    18  H    0.176415  -0.000922
    19  H    0.139482   0.000478
    20  H    0.167551   0.001016
 Sum of Mulliken charges =  -1.00000   1.00000

 Dipole moment (field-independent basis, Debye):
    X=             -0.2818    Y=             -0.0988    Z=              6.3265  Tot=              6.3335
 Quadrupole moment (field-independent basis, Debye-Ang):
   XX=           -107.1569   YY=           -131.1068   ZZ=           -100.0763
   XY=            -10.9478   XZ=             -0.3995   YZ=             -0.7719

  Exact polarizability: 248.115  28.393 275.273   5.999   2.688 118.065
 Approx polarizability: 269.232  50.065 303.717   6.505   3.770 132.521

                      1                      2                      3
                      A                      A                      A
 Frequencies --     56.4328                68.0695                75.1574
 Red. masses --      3.5758                 3.5697                 3.7418
 Frc consts  --      0.0067                 0.0097                 0.0125
 IR Inten    --      1.0152                14.4291                 8.0577

                      4                      5                      6
                      A                      A                      A
 Frequencies --     83.6189               109.3431               147.6414
 Red. masses --      5.7344                 6.7072                 1.1561
 Frc consts  --      0.0236                 0.0472                 0.0148
 IR Inten    --      7.6227                 3.5274                 1.0055

                      7                      8                      9
                      A                      A                      A
 Frequencies --    149.4106               174.6820               196.8240
 Red. masses --      1.1392                 5.1106                 8.6992
 Frc consts  --      0.0150                 0.0919                 0.1986
 IR Inten    --      2.2486                 7.9091                 2.6551

                     10                     11                     12
                      A                      A                      A
 Frequencies --    224.4041               244.2830               281.3639
 Red. masses --      7.0729                 9.8921                 9.0135
 Frc consts  --      0.2099                 0.3478                 0.4204
 IR Inten    --     12.7072                 3.4986                 0.7157

                     13                     14                     15
                      A                      A                      A
 Frequencies --    313.2632               330.1396               348.7967
 Red. masses --      8.6446                10.4544                11.6797
 Frc consts  --      0.4998                 0.6713                 0.8372
 IR Inten    --      0.0092                 5.2006                15.7875

                     16                     17                     18
                      A                      A                      A
 Frequencies --    365.6894               371.6284               437.9457
 Red. masses --     11.7765                10.7591                 8.2468
 Frc consts  --      0.9279                 0.8755                 0.9319
 IR Inten    --      1.1496                 1.0693                 1.1605

                     19                     20                     21
                      A                      A                      A
 Frequencies --    485.5173               519.8053               534.7997
 Red. masses --      9.9381                12.0829                 8.3609
 Frc consts  --      1.3803                 1.9236                 1.4089
 IR Inten    --      8.9299                 1.4586                12.1534

                     22                     23                     24
                      A                      A                      A
 Frequencies --    629.1913               743.9865               760.6070
 Red. masses --      9.8251                10.6680                11.5861
 Frc consts  --      2.2917                 3.4791                 3.9492
 IR Inten    --      4.9272                 8.9285                68.9134

                     25                     26                     27
                      A                      A                      A
 Frequencies --    773.5408               801.1931               878.7757
 Red. masses --     10.5700                 8.4506                10.3720
 Frc consts  --      3.7264                 3.1961                 4.7192
 IR Inten    --      6.3815               332.1784                 6.5933

                     28                     29                     30
                      A                      A                      A
 Frequencies --    940.7636               982.7662              1057.9763
 Red. masses --      9.3622                 8.8542                12.1232
 Frc consts  --      4.8819                 5.0385                 7.9950
 IR Inten    --     70.1030               106.0850               342.9656

                     31                     32                     33
                      A                      A                      A
 Frequencies --   1157.9600              1159.3994              1173.6446
 Red. masses --      1.2871                 1.2807                 2.5038
 Frc consts  --      1.0169                 1.0143                 2.0320
 IR Inten    --     46.3383                 8.8471                29.2057

                     34                     35                     36
                      A                      A                      A
 Frequencies --   1176.0757              1186.9750              1226.7318
 Red. masses --     10.6187                 1.8219                 2.3074
 Frc consts  --      8.6535                 1.5124                 2.0458
 IR Inten    --    125.6875               152.1371                11.9566

                     37                     38                     39
                      A                      A                      A
 Frequencies --   1243.2807              1360.3036              1449.6232
 Red. masses --      3.4660                 7.8372                 1.3410
 Frc consts  --      3.1566                 8.5444                 1.6603
 IR Inten    --    536.4590                 3.0508                26.8415

                     40                     41                     42
                      A                      A                      A
 Frequencies --   1461.9290              1475.5950              1477.0818
 Red. masses --      1.2102                 1.1016                 1.0696
 Frc consts  --      1.5240                 1.4133                 1.3749
 IR Inten    --      0.2949               105.9158                 0.9584

                     43                     44                     45
                      A                      A                      A
 Frequencies --   1497.5565              1498.2515              1509.5204
 Red. masses --      1.0477                 1.0475                 6.4939
 Frc consts  --      1.3844                 1.3854                 8.7184
 IR Inten    --     14.1278                17.9273               997.2306

                     46                     47                     48
                      A                      A                      A
 Frequencies --   1519.4459              1533.5767              1611.0145
 Red. masses --      5.6835                11.1305                10.4774
 Frc consts  --      7.7311                15.4233                16.0214
 IR Inten    --    442.9462                 0.9779                 2.7841

                     49                     50                     51
                      A                      A                      A
 Frequencies --   3024.6513              3025.1269              3105.6598
 Red. masses --      1.0352                 1.0353                 1.0990
 Frc consts  --      5.5797                 5.5823                 6.2454
 IR Inten    --     69.8803               110.3871                41.6746

                     52                     53                     54
                      A                      A                      A
 Frequencies --   3106.3587              3138.9201              3139.4621
 Red. masses --      1.0985                 1.1063                 1.1065
 Frc consts  --      6.2453                 6.4224                 6.4257
 IR Inten    --     39.0098                28.6862                24.5395

 - Thermochemistry -
 -------------------
 Temperature   298.150 Kelvin.  Pressure   1.00000 Atm.
 Atom     1 has atomic number  6 and mass  12.00000

 Molecular mass:   235.96431 amu.
 Principal axes and moments of inertia in atomic units:
                           1         2         3
     Eigenvalues --  2591.141073788.910336097.52016
           X            0.73097   0.68098  -0.04409
           Y           -0.68190   0.73139  -0.00878
           Z            0.02627   0.03649   0.99899
 This molecule is an asymmetric top.
 Rotational symmetry number  1.
 Warning -- assumption of classical behavior for rotation
           may cause significant error
 Rotational temperatures (Kelvin)      0.03343     0.02286     0.01420
 Rotational constants (GHZ):           0.69650     0.47632     0.29598
 Zero-point vibrational energy     337022.5 (Joules/Mol)
                                   80.55031 (Kcal/Mol)
 Warning -- explicit consideration of  21 degrees of freedom as
           vibrations may cause significant error
 Vibrational temperatures:     81.19    97.94   108.13   120.31   157.32
          (Kelvin)            212.42   214.97   251.33   283.19   322.87
                              351.47   404.82   450.72   475.00   501.84
                              526.15   534.69   630.11   698.55   747.88
                              769.46   905.27  1070.43  1094.34  1112.95
                             1152.74  1264.36  1353.55  1413.98  1522.19
                             1666.05  1668.12  1688.61  1692.11  1707.79
                             1764.99  1788.80  1957.17  2085.68  2103.39
                             2123.05  2125.19  2154.65  2155.65  2171.86
                             2186.14  2206.47  2317.89  4351.80  4352.48
                             4468.35  4469.36  4516.21  4516.99

 Zero-point correction=                           0.128365 (Hartree/Particle)
 Thermal correction to Energy=                    0.142606
 Thermal correction to Enthalpy=                  0.143550
 Thermal correction to Gibbs Free Energy=         0.085566
 Sum of electronic and zero-point Energies=          -1529.947627
 Sum of electronic and thermal Energies=             -1529.933386
 Sum of electronic and thermal Enthalpies=           -1529.932442
 Sum of electronic and thermal Free Energies=        -1529.990426

                     E (Thermal)             CV                S
                      KCal/Mol        Cal/Mol-Kelvin    Cal/Mol-Kelvin
 Total                   89.487             49.379            122.038
 Electronic               0.000              0.000              1.377
 Translational            0.889              2.981             42.277
 Rotational               0.889              2.981             32.459
 Vibrational             87.709             43.417             45.924
 Vibration     1          0.596              1.975              4.578
 Vibration     2          0.598              1.969              4.208
 Vibration     3          0.599              1.966              4.014
 Vibration     4          0.601              1.960              3.804
 Vibration     5          0.606              1.942              3.281
 Vibration     6          0.617              1.905              2.702
 Vibration     7          0.618              1.903              2.680
 Vibration     8          0.627              1.874              2.385
 Vibration     9          0.636              1.844              2.163
 Vibration    10          0.649              1.804              1.923
 Vibration    11          0.660              1.772              1.771
 Vibration    12          0.681              1.708              1.525
 Vibration    13          0.701              1.648              1.345
 Vibration    14          0.713              1.615              1.259
 Vibration    15          0.726              1.578              1.172
 Vibration    16          0.739              1.543              1.098
 Vibration    17          0.743              1.530              1.073
 Vibration    18          0.798              1.387              0.833
 Vibration    19          0.842              1.282              0.695
 Vibration    20          0.875              1.206              0.610
 Vibration    21          0.890              1.173              0.577

                           ! Non-Optimized Parameters !
 Normal termination of Gaussian 16 at Sat Feb 10 11:04:15 2024.
