 Q-Chem 5.4, Q-Chem, Inc., Pleasanton, CA (2021)
 Q-Chem 5.4.0 for Intel X86 EM64T Linux

User input:
--------------------------------------------------------------
$molecule
0 1
C                  4.7147890000     -0.7115710000      0.8832070000
O                  4.2589410000      0.3487950000      0.0444690000
C                  2.9268400000      0.5001360000     -0.1509800000
C                  2.5508180000      1.5656760000     -0.9890390000
C                  1.2163620000      1.8038460000     -1.2512350000
C                  0.2184560000      0.9921600000     -0.6896410000
C                 -1.2064340000      1.2731100000     -0.9902280000
O                 -1.5381480000      2.1972860000     -1.7177570000
C                 -2.2296270000      0.3787760000     -0.3667430000
C                 -3.5831020000      0.6115360000     -0.6259260000
C                 -4.5545280000     -0.2054060000     -0.0585960000
C                 -4.1820810000     -1.2640950000      0.7742070000
C                 -2.8386040000     -1.5033910000      1.0378090000
C                 -1.8549130000     -0.6865640000      0.4712930000
C                 -0.4208780000     -0.9651920000      0.7705340000
O                 -0.0906390000     -1.8887650000      1.4974230000
C                  0.5989010000     -0.0693860000      0.1457080000
C                  1.9479470000     -0.3159370000      0.4151420000
H                  4.4188350000     -1.6863890000      0.4839580000
H                  4.3339910000     -0.6004600000      1.9029680000
H                  5.8001810000     -0.6347250000      0.8893400000
H                  3.3293550000      2.1856080000     -1.4169680000
H                  0.9146150000      2.6209320000     -1.8948060000
H                 -3.8489350000      1.4373910000     -1.2741100000
H                 -5.6029430000     -0.0200730000     -0.2632020000
H                 -4.9412330000     -1.8998420000      1.2155380000
H                 -2.5270050000     -2.3178170000      1.6800380000
H                  2.1890380000     -1.1456380000      1.0646710000
$end
$rem
MAX_SCF_CYCLES=200
BASIS  =  6-311++G(d,p)
GUI  =  2
JOB_TYPE  =  SP
METHOD  =  B3LYP
SOLVENT_METHOD = PCM
$end
$pcm
theory = CPCM
$end
$solvent
dielectric 37.219
opticaldielectric 1.43
$end

--------------------------------------------------------------

             Standard Nuclear Orientation (Angstroms)
    I     Atom           X                Y                Z
 ----------------------------------------------------------------
    1      C       4.7147890000    -0.7115710000     0.8832070000
    2      O       4.2589410000     0.3487950000     0.0444690000
    3      C       2.9268400000     0.5001360000    -0.1509800000
    4      C       2.5508180000     1.5656760000    -0.9890390000
    5      C       1.2163620000     1.8038460000    -1.2512350000
    6      C       0.2184560000     0.9921600000    -0.6896410000
    7      C      -1.2064340000     1.2731100000    -0.9902280000
    8      O      -1.5381480000     2.1972860000    -1.7177570000
    9      C      -2.2296270000     0.3787760000    -0.3667430000
   10      C      -3.5831020000     0.6115360000    -0.6259260000
   11      C      -4.5545280000    -0.2054060000    -0.0585960000
   12      C      -4.1820810000    -1.2640950000     0.7742070000
   13      C      -2.8386040000    -1.5033910000     1.0378090000
   14      C      -1.8549130000    -0.6865640000     0.4712930000
   15      C      -0.4208780000    -0.9651920000     0.7705340000
   16      O      -0.0906390000    -1.8887650000     1.4974230000
   17      C       0.5989010000    -0.0693860000     0.1457080000
   18      C       1.9479470000    -0.3159370000     0.4151420000
   19      H       4.4188350000    -1.6863890000     0.4839580000
   20      H       4.3339910000    -0.6004600000     1.9029680000
   21      H       5.8001810000    -0.6347250000     0.8893400000
   22      H       3.3293550000     2.1856080000    -1.4169680000
   23      H       0.9146150000     2.6209320000    -1.8948060000
   24      H      -3.8489350000     1.4373910000    -1.2741100000
   25      H      -5.6029430000    -0.0200730000    -0.2632020000
   26      H      -4.9412330000    -1.8998420000     1.2155380000
   27      H      -2.5270050000    -2.3178170000     1.6800380000
   28      H       2.1890380000    -1.1456380000     1.0646710000
 ----------------------------------------------------------------

    9    -803.5285416775      2.07e-06  Convergence criterion met
 Total energy in the final basis set =     -803.5285416775

                    Orbital Energies (a.u.)
 --------------------------------------------------------------

 Alpha MOs
 -- Occupied --
-19.1737 -19.1331 -19.1280 -10.2845 -10.2805 -10.2616 -10.2238 -10.2112
-10.2075 -10.2069 -10.2018 -10.1981 -10.1965 -10.1963 -10.1956 -10.1953
-10.1949 -10.1944  -1.0889  -1.0678  -1.0627  -0.8931  -0.8806  -0.8122
 -0.7800  -0.7766  -0.7739  -0.7202  -0.6891  -0.6579  -0.6391  -0.6152
 -0.5877  -0.5625  -0.5612  -0.5197  -0.5107  -0.4969  -0.4862  -0.4811
 -0.4607  -0.4586  -0.4541  -0.4541  -0.4490  -0.4476  -0.4248  -0.4195
 -0.4171  -0.3974  -0.3818  -0.3804  -0.3766  -0.3667  -0.3509  -0.3386
 -0.2889  -0.2862  -0.2799  -0.2771  -0.2757  -0.2498

          Ground-State Mulliken Net Atomic Charges

     Atom                 Charge (a.u.)
  ----------------------------------------
      1 C                    -0.373666
      2 O                    -0.185024
      3 C                    -0.726953
      4 C                    -0.400516
      5 C                     0.207762
      6 C                     0.177523
      7 C                    -0.662078
      8 O                    -0.300823
      9 C                     0.013269
     10 C                     0.214448
     11 C                    -0.462147
     12 C                    -0.450115
     13 C                     0.167069
     14 C                     0.325567
     15 C                    -0.681979
     16 O                    -0.283074
     17 C                     0.731195
     18 C                     0.639432
     19 H                     0.187277
     20 H                     0.187272
     21 H                     0.206911
     22 H                     0.244558
     23 H                     0.204255
     24 H                     0.195751
     25 H                     0.222142
     26 H                     0.224199
     27 H                     0.195655
     28 H                     0.182089
  ----------------------------------------
  Sum of atomic charges =     0.000000

                    Cartesian Multipole Moments
 -----------------------------------------------------------------
    Charge (ESU x 10^10)
                -0.0000
    Dipole Moment (Debye)
         X       0.8274      Y      -1.7233      Z       1.3692
       Tot       2.3514
    Quadrupole Moments (Debye-Ang)
        XX     -71.4509     XY       3.4564     YY    -110.1658
        XZ      -0.5260     YZ       3.3276     ZZ    -108.4774

 Total job time:  54.80s(wall), 353.22s(cpu)
        *  Thank you very much for using Q-Chem.  Have a nice day.  *
