 Gaussian 16, Revision A.03,
 Gaussian 16:  ES64L-G16RevA.03 25-Dec-2016

 --------------------------------------
 #P UB3LYP/6-311++G(d,p) nosym opt freq
 --------------------------------------

 -------
 Radical
 -------
 Symbolic Z-matrix:
 Charge = -1 Multiplicity = 2

 SCF Done:  E(UB3LYP) =  -685.786428553     A.U. after   21 cycles
 SCF Done:  E(UB3LYP) =  -685.827020293     A.U. after   17 cycles
 SCF Done:  E(UB3LYP) =  -685.851763588     A.U. after   18 cycles
 SCF Done:  E(UB3LYP) =  -685.861340790     A.U. after   16 cycles
 SCF Done:  E(UB3LYP) =  -685.862336633     A.U. after   16 cycles
 SCF Done:  E(UB3LYP) =  -685.862640700     A.U. after   15 cycles
 SCF Done:  E(UB3LYP) =  -685.862691067     A.U. after   14 cycles
 SCF Done:  E(UB3LYP) =  -685.862723291     A.U. after   14 cycles
 SCF Done:  E(UB3LYP) =  -685.862728194     A.U. after   12 cycles
 SCF Done:  E(UB3LYP) =  -685.862728468     A.U. after   11 cycles
 SCF Done:  E(UB3LYP) =  -685.862729166     A.U. after   10 cycles
 Optimization completed.
    -- Stationary point found.
 Normal termination of Gaussian 16 at Thu Dec 28 20:21:49 2023.

 ----------------------------------------------------------------------
 #P Geom=AllCheck Guess=TCheck SCRF=Check GenChk UB3LYP/6-311++G(d,p) F
 req
 ----------------------------------------------------------------------

 Structure from the checkpoint file:  "310-rad.chk"
 -------
 Radical
 -------
 Charge = -1 Multiplicity = 2

                          Input orientation:
 ---------------------------------------------------------------------
 Center     Atomic      Atomic             Coordinates (Angstroms)
 Number     Number       Type             X           Y           Z
 ---------------------------------------------------------------------
      1          8           0       -2.210703   -2.069689    0.206031
      2          6           0       -1.661326   -0.834826    0.099534
      3          6           0       -2.493195    0.281316    0.031582
      4          6           0       -1.958169    1.566900   -0.078453
      5          6           0       -0.579315    1.765168   -0.122985
      6          8           0       -0.090622    3.025222   -0.229884
      7          6           0        0.292594    0.648509   -0.055901
      8          6           0        1.738256    0.849971   -0.102179
      9          8           0        2.240884    2.024212   -0.203244
     10          6           0        2.558672   -0.318820   -0.030295
     11          6           0        2.030976   -1.587010    0.078189
     12          6           0        0.622853   -1.830405    0.127077
     13          8           0        0.143919   -3.014543    0.227857
     14          6           0       -0.253854   -0.664584    0.056483
     15          1           0       -1.424553   -2.695954    0.237524
     16          1           0       -3.566438    0.128179    0.066177
     17          1           0       -2.606519    2.434860   -0.131213
     18          1           0        0.908366    2.910847   -0.241911
     19          1           0        3.632212   -0.160628   -0.065472
     20          1           0        2.675961   -2.458727    0.131082
 ---------------------------------------------------------------------

 SCF Done:  E(UB3LYP) =  -685.862729166     A.U. after    2 cycles

 Alpha  occ. eigenvalues --  -19.00273 -19.00270 -18.96368 -18.96367 -10.10696
 Alpha  occ. eigenvalues --  -10.10694 -10.10692 -10.10690 -10.05407 -10.05364
 Alpha  occ. eigenvalues --  -10.05237 -10.05184 -10.04813 -10.04753  -0.92566
 Alpha  occ. eigenvalues --   -0.92401  -0.87759  -0.87572  -0.73210  -0.68608
 Alpha  occ. eigenvalues --   -0.62680  -0.61250  -0.56017  -0.51277  -0.49623
 Alpha  occ. eigenvalues --   -0.46053  -0.39878  -0.38646  -0.38622  -0.37761
 Alpha  occ. eigenvalues --   -0.34949  -0.31328  -0.31107  -0.30031  -0.28881
 Alpha  occ. eigenvalues --   -0.28615  -0.27464  -0.27292  -0.26308  -0.25882
 Alpha  occ. eigenvalues --   -0.24127  -0.23770  -0.22458  -0.18242  -0.15841
 Alpha  occ. eigenvalues --   -0.13482  -0.13254  -0.12217  -0.09003  -0.03262
 Alpha virt. eigenvalues --    0.09367   0.09805   0.09815   0.10279   0.11429
 Alpha virt. eigenvalues --    0.12220   0.12736   0.14507   0.15772   0.16245
 Alpha virt. eigenvalues --    0.17076   0.18238   0.18328   0.18433   0.18920

  Beta  occ. eigenvalues --  -19.00219 -19.00216 -18.95799 -18.95798 -10.10649
  Beta  occ. eigenvalues --  -10.10647 -10.10534 -10.10533 -10.05425 -10.05382
  Beta  occ. eigenvalues --  -10.05158 -10.05104 -10.04648 -10.04586  -0.92379
  Beta  occ. eigenvalues --   -0.92217  -0.86841  -0.86630  -0.72980  -0.68072
  Beta  occ. eigenvalues --   -0.62475  -0.60955  -0.55175  -0.50940  -0.49419
  Beta  occ. eigenvalues --   -0.45873  -0.39728  -0.38524  -0.38396  -0.37449
  Beta  occ. eigenvalues --   -0.34731  -0.31091  -0.30345  -0.29755  -0.28787
  Beta  occ. eigenvalues --   -0.28186  -0.27067  -0.26596  -0.25721  -0.24863
  Beta  occ. eigenvalues --   -0.23590  -0.22309  -0.22107  -0.17553  -0.13224
  Beta  occ. eigenvalues --   -0.12964  -0.12757  -0.11758  -0.07849
  Beta virt. eigenvalues --    0.02886   0.09370   0.09813   0.10963   0.11442
  Beta virt. eigenvalues --    0.11588   0.12237   0.12758   0.14524   0.15970
  Beta virt. eigenvalues --    0.16289   0.17097   0.18436   0.18517   0.19270

 Mulliken charges and spin densities:
               1          2
     1  O   -0.380290   0.017106
     2  C   -0.323995   0.054373
     3  C    0.105888   0.057015
     4  C    0.106100   0.057041
     5  C   -0.324041   0.054382
     6  O   -0.380169   0.017098
     7  C    0.464805  -0.004707
     8  C   -0.496314   0.086717
     9  O   -0.453966   0.204657
    10  C   -0.060830   0.105380
    11  C   -0.060932   0.105355
    12  C   -0.496221   0.086763
    13  O   -0.453982   0.204610
    14  C    0.464711  -0.004715
    15  H    0.344270  -0.004871
    16  H    0.149839  -0.004822
    17  H    0.149854  -0.004822
    18  H    0.344142  -0.004869
    19  H    0.150568  -0.010846
    20  H    0.150564  -0.010843
 Sum of Mulliken charges =  -1.00000   1.00000

 Dipole moment (field-independent basis, Debye):
    X=             -1.0128    Y=              0.4220    Z=             -0.0091  Tot=              1.0972
 Quadrupole moment (field-independent basis, Debye-Ang):
   XX=            -98.2634   YY=           -119.1096   ZZ=            -85.9528
   XY=            -10.5031   XZ=              1.0750   YZ=              2.7853

  Exact polarizability: 198.516  -3.969 190.345  -2.376  -8.913  73.720
 Approx polarizability: 329.938   7.319 343.994  -5.188 -17.851 114.697

                      1                      2                      3
                      A                      A                      A
 Frequencies --    106.7620               116.7205               159.1318
 Red. masses --     12.1704                 5.4486                 8.4696
 Frc consts  --      0.0817                 0.0437                 0.1264
 IR Inten    --      0.0000                 4.5794                 0.0101

                      4                      5                      6
                      A                      A                      A
 Frequencies --    196.9954               316.0016               341.3160
 Red. masses --      6.7660                 7.0168                 5.4697
 Frc consts  --      0.1547                 0.4128                 0.3754
 IR Inten    --      0.2295                 1.8024                 0.0000

                      7                      8                      9
                      A                      A                      A
 Frequencies --    375.9577               379.5092               405.8338
 Red. masses --      6.6374                 6.3937                10.7410
 Frc consts  --      0.5527                 0.5426                 1.0423
 IR Inten    --      0.0000                17.4736                 1.8597

                     10                     11                     12
                      A                      A                      A
 Frequencies --    430.3592               457.0891               464.7683
 Red. masses --     11.1463                 4.8412                10.9799
 Frc consts  --      1.2163                 0.5959                 1.3974
 IR Inten    --      3.0152                 0.0000                11.8995

                     13                     14                     15
                      A                      A                      A
 Frequencies --    472.3240               510.8415               534.7993
 Red. masses --      9.8845                 5.2046                 2.9990
 Frc consts  --      1.2992                 0.8002                 0.5054
 IR Inten    --      3.1555                 4.8764                 0.2110

                     16                     17                     18
                      A                      A                      A
 Frequencies --    632.3036               653.5566               655.2509
 Red. masses --      7.9477                 5.8108                 4.1044
 Frc consts  --      1.8722                 1.4624                 1.0383
 IR Inten    --     10.4282                 0.0002                25.8516

                     19                     20                     21
                      A                      A                      A
 Frequencies --    663.3600               734.1597               747.3893
 Red. masses --      2.4405                 9.0321                 7.1323
 Frc consts  --      0.6327                 2.8683                 2.3473
 IR Inten    --     25.9525                 0.0000                 3.5871

                     22                     23                     24
                      A                      A                      A
 Frequencies --    765.6542               811.6132               827.7180
 Red. masses --      6.4180                 1.5823                 2.0839
 Frc consts  --      2.2167                 0.6141                 0.8412
 IR Inten    --     31.9256                11.2236                73.2097

                     25                     26                     27
                      A                      A                      A
 Frequencies --    902.5953               923.8147               926.2879
 Red. masses --      1.2890                 1.2516                 1.0684
 Frc consts  --      0.6187                 0.6293                 0.5401
 IR Inten    --      0.0004                 0.0268                 6.2879

                     28                     29                     30
                      A                      A                      A
 Frequencies --    927.0200               946.2628               972.1204
 Red. masses --      1.0558                 7.5203                 5.2129
 Frc consts  --      0.5346                 3.9674                 2.9025
 IR Inten    --    143.0565                81.0234                14.4873

                     31                     32                     33
                      A                      A                      A
 Frequencies --   1096.7989              1137.2735              1151.4476
 Red. masses --      1.4122                 2.6699                 1.2732
 Frc consts  --      1.0009                 2.0346                 0.9946
 IR Inten    --      4.9596                11.0614                38.2396

                     34                     35                     36
                      A                      A                      A
 Frequencies --   1263.2703              1267.2833              1278.0579
 Red. masses --      4.2799                 1.7811                 5.9801
 Frc consts  --      4.0242                 1.6854                 5.7552
 IR Inten    --      1.0924               201.5151                 1.5228

                     37                     38                     39
                      A                      A                      A
 Frequencies --   1296.8726              1302.4345              1384.0986
 Red. masses --      3.1593                 5.0998                 5.1790
 Frc consts  --      3.1307                 5.0970                 5.8456
 IR Inten    --     36.5261                87.5262                 1.4554

                     40                     41                     42
                      A                      A                      A
 Frequencies --   1406.8123              1432.7662              1433.4813
 Red. masses --      2.1026                 8.0879                 8.7195
 Frc consts  --      2.4518                 9.7822                10.5566
 IR Inten    --    108.5005               144.0471                 1.6383

                     43                     44                     45
                      A                      A                      A
 Frequencies --   1509.4227              1528.0762              1549.0139
 Red. masses --      2.0484                 3.2111                 5.1559
 Frc consts  --      2.7497                 4.4177                 7.2889
 IR Inten    --    666.1228                27.5460               339.0431

                     46                     47                     48
                      A                      A                      A
 Frequencies --   1606.2956              1651.9409              1658.3508
 Red. masses --      1.8611                 5.9415                 2.5362
 Frc consts  --      2.8292                 9.5530                 4.1095
 IR Inten    --    104.6735                 2.1480                 0.2267

                     49                     50                     51
                      A                      A                      A
 Frequencies --   2982.2597              2990.9969              3147.0049
 Red. masses --      1.0724                 1.0731                 1.0854
 Frc consts  --      5.6197                 5.6563                 6.3335
 IR Inten    --      1.5977               549.5500                20.2403

                     52                     53                     54
                      A                      A                      A
 Frequencies --   3160.0707              3166.8476              3177.3725
 Red. masses --      1.0864                 1.0940                 1.0937
 Frc consts  --      6.3921                 6.4641                 6.5058
 IR Inten    --     17.5752                35.5255                28.3788

 - Thermochemistry -
 -------------------
 Temperature   298.150 Kelvin.  Pressure   1.00000 Atm.
 Atom     1 has atomic number  8 and mass  15.99491

 Molecular mass:   190.02661 amu.
 Principal axes and moments of inertia in atomic units:
                           1         2         3
     Eigenvalues --  1825.507432299.233314124.74071
           X            0.38307   0.92347   0.02131
           Y            0.92036  -0.38354   0.07642
           Z           -0.07874   0.00966   0.99685
 This molecule is an asymmetric top.
 Rotational symmetry number  1.
 Warning -- assumption of classical behavior for rotation
           may cause significant error
 Rotational temperatures (Kelvin)      0.04745     0.03767     0.02100
 Rotational constants (GHZ):           0.98862     0.78493     0.43754
 Zero-point vibrational energy     364476.8 (Joules/Mol)
                                   87.11205 (Kcal/Mol)
 Warning -- explicit consideration of  15 degrees of freedom as
           vibrations may cause significant error
 Vibrational temperatures:    153.61   167.93   228.96   283.43   454.66
          (Kelvin)            491.08   540.92   546.03   583.90   619.19
                              657.65   668.70   679.57   734.99   769.46
                              909.74   940.32   942.76   954.43  1056.29
                             1075.33  1101.61  1167.73  1190.90  1298.63
                             1329.16  1332.72  1333.77  1361.46  1398.66
                             1578.05  1636.28  1656.68  1817.56  1823.34
                             1838.84  1865.91  1873.91  1991.41  2024.09
                             2061.43  2062.46  2171.72  2198.56  2228.69
                             2311.10  2376.77  2386.00  4290.81  4303.38
                             4527.84  4546.64  4556.39  4571.53

 Zero-point correction=                           0.138822 (Hartree/Particle)
 Thermal correction to Energy=                    0.148892
 Thermal correction to Enthalpy=                  0.149836
 Thermal correction to Gibbs Free Energy=         0.102736
 Sum of electronic and zero-point Energies=           -685.723907
 Sum of electronic and thermal Energies=              -685.713837
 Sum of electronic and thermal Enthalpies=            -685.712893
 Sum of electronic and thermal Free Energies=         -685.759993

                     E (Thermal)             CV                S
                      KCal/Mol        Cal/Mol-Kelvin    Cal/Mol-Kelvin
 Total                   93.431             41.298             99.131
 Electronic               0.000              0.000              1.377
 Translational            0.889              2.981             41.632
 Rotational               0.889              2.981             31.227
 Vibrational             91.654             35.336             24.895
 Vibration     1          0.606              1.944              3.327
 Vibration     2          0.608              1.935              3.154
 Vibration     3          0.621              1.892              2.560
 Vibration     4          0.636              1.844              2.161
 Vibration     5          0.703              1.643              1.331
 Vibration     6          0.721              1.593              1.206
 Vibration     7          0.747              1.521              1.055
 Vibration     8          0.750              1.514              1.041
 Vibration     9          0.771              1.458              0.941
 Vibration    10          0.792              1.404              0.857
 Vibration    11          0.815              1.345              0.775
 Vibration    12          0.822              1.328              0.752
 Vibration    13          0.829              1.311              0.731
 Vibration    14          0.866              1.226              0.632
 Vibration    15          0.890              1.173              0.577

 Optimization completed.
    -- Stationary point found.
 Normal termination of Gaussian 16 at Thu Dec 28 20:46:32 2023.
