 Q-Chem 5.4, Q-Chem, Inc., Pleasanton, CA (2021)
 Q-Chem 5.4.0 for Intel X86 EM64T Linux

User input:
--------------------------------------------------------------
$molecule
-2 1
O                  4.8930030000      0.8889110000     -0.7218100000
C                  3.6297890000      0.3090650000     -0.5171080000
C                  3.5204460000     -1.1056140000     -0.4374380000
C                  2.2698340000     -1.6624870000     -0.2201470000
C                  1.1057540000     -0.8848350000     -0.1062110000
C                 -0.1787710000     -1.5554020000      0.1073160000
O                 -0.2358230000     -2.8156600000      0.1945540000
C                 -1.3443610000     -0.6726220000      0.2104090000
C                 -2.6650860000     -1.1820850000      0.4149130000
O                 -2.8900510000     -2.5604600000      0.5196210000
C                 -3.7451860000     -0.3300460000      0.5131530000
C                 -3.6041590000      1.0727750000      0.4121880000
C                 -2.3560190000      1.6685070000      0.2110800000
O                 -2.2106590000      2.9674170000      0.1173830000
C                 -1.1938870000      0.7694760000      0.1074730000
C                  0.0857420000      1.3510220000     -0.1016670000
O                  0.2282130000      2.7150790000     -0.2028770000
C                  1.2263060000      0.5499920000     -0.2080110000
C                  2.5325040000      1.1154160000     -0.3997410000
H                  5.5432700000      0.2629130000     -0.3801880000
H                  4.4000950000     -1.7300050000     -0.5838070000
H                  2.1415110000     -2.7379680000     -0.1483750000
H                 -3.8470890000     -2.6487800000      0.5824470000
H                 -4.7378260000     -0.7576280000      0.6761530000
H                 -4.4712140000      1.7233230000      0.4925270000
H                 -0.7326750000      3.0571080000     -0.0902200000
H                  2.6363400000      2.1925890000     -0.4416180000
$end

$rem
BASIS  =  6-311++G(d,p)
GUI  =  2
JOB_TYPE  =  SP
METHOD  =  B3LYP
SCF_CONVERGENCE  = 8
SOLVENT_METHOD = sm12
$end

$smx
solvent dimethylformamide
charges CM5
$end

--------------------------------------------------------------

             Standard Nuclear Orientation (Angstroms)
    I     Atom           X                Y                Z
 ----------------------------------------------------------------
    1      O       4.8930030000     0.8889110000    -0.7218100000
    2      C       3.6297890000     0.3090650000    -0.5171080000
    3      C       3.5204460000    -1.1056140000    -0.4374380000
    4      C       2.2698340000    -1.6624870000    -0.2201470000
    5      C       1.1057540000    -0.8848350000    -0.1062110000
    6      C      -0.1787710000    -1.5554020000     0.1073160000
    7      O      -0.2358230000    -2.8156600000     0.1945540000
    8      C      -1.3443610000    -0.6726220000     0.2104090000
    9      C      -2.6650860000    -1.1820850000     0.4149130000
   10      O      -2.8900510000    -2.5604600000     0.5196210000
   11      C      -3.7451860000    -0.3300460000     0.5131530000
   12      C      -3.6041590000     1.0727750000     0.4121880000
   13      C      -2.3560190000     1.6685070000     0.2110800000
   14      O      -2.2106590000     2.9674170000     0.1173830000
   15      C      -1.1938870000     0.7694760000     0.1074730000
   16      C       0.0857420000     1.3510220000    -0.1016670000
   17      O       0.2282130000     2.7150790000    -0.2028770000
   18      C       1.2263060000     0.5499920000    -0.2080110000
   19      C       2.5325040000     1.1154160000    -0.3997410000
   20      H       5.5432700000     0.2629130000    -0.3801880000
   21      H       4.4000950000    -1.7300050000    -0.5838070000
   22      H       2.1415110000    -2.7379680000    -0.1483750000
   23      H      -3.8470890000    -2.6487800000     0.5824470000
   24      H      -4.7378260000    -0.7576280000     0.6761530000
   25      H      -4.4712140000     1.7233230000     0.4925270000
   26      H      -0.7326750000     3.0571080000    -0.0902200000
   27      H       2.6363400000     2.1925890000    -0.4416180000
 ----------------------------------------------------------------

   18    -914.6758486130      3.72e-09  Convergence criterion met
 Total energy in the final basis set =     -914.9588587760

                    Orbital Energies (a.u.)
 --------------------------------------------------------------

 Alpha MOs
 -- Occupied --
-19.1525 -19.1302 -19.0911 -19.0453 -19.0355 -10.2287 -10.2091 -10.2041
-10.1994 -10.1907 -10.1726 -10.1705 -10.1631 -10.1613 -10.1608 -10.1570
-10.1559 -10.1525 -10.1415  -1.0524  -1.0344  -1.0086  -0.9614  -0.9515
 -0.8464  -0.8180  -0.7717  -0.7468  -0.7219  -0.7038  -0.6598  -0.6248
 -0.6194  -0.5758  -0.5701  -0.5330  -0.5299  -0.5064  -0.4822  -0.4719
 -0.4546  -0.4414  -0.4368  -0.4231  -0.4197  -0.4086  -0.4008  -0.3966
 -0.3793  -0.3756  -0.3726  -0.3666  -0.3603  -0.3538  -0.3396  -0.3338
 -0.3327  -0.3233  -0.3084  -0.2721  -0.2559  -0.2398  -0.2244  -0.2223
 -0.2023  -0.1802  -0.1234

          Ground-State Mulliken Net Atomic Charges

     Atom                 Charge (a.u.)
  ----------------------------------------
      1 O                    -0.072147
      2 C                     2.169012
      3 C                     2.648139
      4 C                     0.385089
      5 C                    -1.784929
      6 C                    -2.252150
      7 O                    -0.268571
      8 C                    -1.306435
      9 C                     0.144232
     10 O                    -0.061915
     11 C                     1.659983
     12 C                     0.484569
     13 C                    -1.415434
     14 O                    -0.456317
     15 C                    -1.452176
     16 C                    -1.533274
     17 O                    -0.320692
     18 C                    -1.034193
     19 C                     0.104315
     20 H                     0.384677
     21 H                     0.422771
     22 H                     0.143254
     23 H                     0.371215
     24 H                     0.331213
     25 H                     0.160195
     26 H                     0.401201
     27 H                     0.148367
  ----------------------------------------
  Sum of atomic charges =    -2.000000

                    Cartesian Multipole Moments
 -----------------------------------------------------------------
    Charge (ESU x 10^10)
                -9.6064
    Dipole Moment (Debye)
         X       5.5797      Y      -3.6052      Z      -0.0036
       Tot       6.6431
    Quadrupole Moments (Debye-Ang)
        XX    -151.1431     XY       7.8922     YY    -177.7237
        XZ       7.3020     YZ       2.8726     ZZ    -123.8505

 Total job time:  703.73s(wall), 5515.06s(cpu)
        *  Thank you very much for using Q-Chem.  Have a nice day.  *
