 Gaussian 16, Revision A.03,
 Gaussian 16:  ES64L-G16RevA.03 25-Dec-2016

 --------------------------------------
 #P UB3LYP/6-311++G(d,p) nosym opt freq
 --------------------------------------

 -------
 Reduced
 -------
 Symbolic Z-matrix:
 Charge = -2 Multiplicity = 1

 SCF Done:  E(UB3LYP) =  -3777.47417633     A.U. after   28 cycles
 SCF Done:  E(UB3LYP) =  -3777.47417635     A.U. after   17 cycles
 Optimization completed.
    -- Stationary point found.
 Normal termination of Gaussian 16 at Wed Dec 27 21:02:43 2023.

 ----------------------------------------------------------------------
 #P Geom=AllCheck Guess=TCheck SCRF=Check GenChk UB3LYP/6-311++G(d,p) F
 req
 ----------------------------------------------------------------------

 Structure from the checkpoint file:  "160-an.chk"
 -------
 Reduced
 -------
 Charge = -2 Multiplicity = 1

                          Input orientation:
 ---------------------------------------------------------------------
 Center     Atomic      Atomic             Coordinates (Angstroms)
 Number     Number       Type             X           Y           Z
 ---------------------------------------------------------------------
      1          6           0       -1.857608    1.884900   -5.106907
      2          6           0       -1.710655    0.572707   -5.508777
      3          6           0       -1.234934   -0.398361   -4.585943
      4          6           0       -1.542256    2.314871   -3.792894
      5          6           0       -1.059135    1.327855   -2.860650
      6          6           0       -0.920711   -0.012906   -3.298884
      7          6           0       -1.737045    3.724036   -3.462998
      8          6           0       -0.715279    1.670235   -1.498057
      9          6           0       -1.339080    4.088126   -2.121868
     10          6           0       -0.898990    3.069139   -1.166632
     11          6           0       -1.361176    5.429403   -1.608787
     12          6           0       -1.111053    5.789726   -0.295334
     13          6           0       -0.794162    4.723258    0.596854
     14          6           0       -0.699027    3.426373    0.184099
     15          8           0       -2.223733    4.533119   -4.325149
     16          8           0       -0.306101    0.803420   -0.648110
     17          1           0       -2.222075    2.649750   -5.785181
     18          1           0       -1.957989    0.280968   -6.528135
     19          1           0       -1.122039   -1.436598   -4.893113
     20          1           0       -0.556518   -0.725912   -2.565733
     21         35           0       -0.740355    5.103938    2.552774
     22          1           0       -0.469625    2.615390    0.865676
     23          7           0       -1.107671    7.128176    0.161429
     24         17           0       -1.514825    6.833220   -2.731437
     25          1           0       -0.967543    7.779114   -0.602481
     26          1           0       -0.436231    7.277443    0.906225
 ---------------------------------------------------------------------

 SCF Done:  E(UB3LYP) =  -3777.47417635     A.U. after    2 cycles

 Alpha  occ. eigenvalues -- -482.61681-101.31718 -62.26958 -56.08954 -56.08626
 Alpha  occ. eigenvalues --  -56.08619 -18.79642 -18.78389 -14.10870  -9.99565
 Alpha  occ. eigenvalues --   -9.99468  -9.99179  -9.95611  -9.95324  -9.94314
 Alpha  occ. eigenvalues --   -9.94128  -9.94081  -9.93308  -9.93019  -9.92895
 Alpha  occ. eigenvalues --   -9.92251  -9.91829  -9.91789  -9.23167  -8.47904
 Alpha  occ. eigenvalues --   -6.99576  -6.98694  -6.98630  -6.30907  -6.29826
 Alpha  occ. eigenvalues --   -6.29800  -2.42020  -2.41718  -2.41695  -2.40839
 Alpha  occ. eigenvalues --   -2.40838  -0.71658  -0.71224  -0.70617  -0.62758
 Alpha  occ. eigenvalues --   -0.61080  -0.60788  -0.56724  -0.52828  -0.50690
 Alpha  occ. eigenvalues --   -0.49631  -0.48480  -0.41750  -0.39487  -0.37583
 Alpha  occ. eigenvalues --   -0.35349  -0.31831  -0.30237  -0.29256  -0.27364
 Alpha  occ. eigenvalues --   -0.25141  -0.22110  -0.21616  -0.21092  -0.19541
 Alpha  occ. eigenvalues --   -0.18494  -0.18269  -0.17560  -0.16044  -0.14902
 Alpha  occ. eigenvalues --   -0.14797  -0.12995  -0.12127  -0.11748  -0.11091
 Alpha  occ. eigenvalues --   -0.10451  -0.09594  -0.09318  -0.08625  -0.08344
 Alpha  occ. eigenvalues --   -0.07487  -0.06022  -0.01368  -0.00316   0.00185
 Alpha  occ. eigenvalues --    0.01524   0.02601   0.04112   0.12173
 Alpha virt. eigenvalues --    0.15075   0.15548   0.16593   0.17364   0.18598
 Alpha virt. eigenvalues --    0.19215   0.19632   0.20398   0.21114   0.21298
 Alpha virt. eigenvalues --    0.21471   0.22391   0.23042   0.23253   0.24099

  Beta  occ. eigenvalues -- -482.61681-101.31718 -62.26958 -56.08954 -56.08626
  Beta  occ. eigenvalues --  -56.08619 -18.79642 -18.78389 -14.10870  -9.99565
  Beta  occ. eigenvalues --   -9.99468  -9.99179  -9.95611  -9.95324  -9.94314
  Beta  occ. eigenvalues --   -9.94128  -9.94081  -9.93308  -9.93019  -9.92895
  Beta  occ. eigenvalues --   -9.92251  -9.91829  -9.91789  -9.23167  -8.47904
  Beta  occ. eigenvalues --   -6.99576  -6.98694  -6.98630  -6.30907  -6.29826
  Beta  occ. eigenvalues --   -6.29800  -2.42020  -2.41718  -2.41695  -2.40839
  Beta  occ. eigenvalues --   -2.40838  -0.71658  -0.71224  -0.70617  -0.62758
  Beta  occ. eigenvalues --   -0.61080  -0.60788  -0.56724  -0.52828  -0.50690
  Beta  occ. eigenvalues --   -0.49631  -0.48480  -0.41750  -0.39487  -0.37583
  Beta  occ. eigenvalues --   -0.35349  -0.31831  -0.30237  -0.29256  -0.27364
  Beta  occ. eigenvalues --   -0.25141  -0.22110  -0.21616  -0.21092  -0.19541
  Beta  occ. eigenvalues --   -0.18494  -0.18269  -0.17560  -0.16044  -0.14902
  Beta  occ. eigenvalues --   -0.14797  -0.12995  -0.12127  -0.11748  -0.11091
  Beta  occ. eigenvalues --   -0.10451  -0.09594  -0.09318  -0.08625  -0.08344
  Beta  occ. eigenvalues --   -0.07487  -0.06022  -0.01368  -0.00316   0.00185
  Beta  occ. eigenvalues --    0.01524   0.02601   0.04112   0.12173
  Beta virt. eigenvalues --    0.15075   0.15548   0.16593   0.17364   0.18598
  Beta virt. eigenvalues --    0.19215   0.19632   0.20398   0.21114   0.21298
  Beta virt. eigenvalues --    0.21471   0.22391   0.23042   0.23253   0.24099

 Mulliken charges and spin densities:
               1          2
     1  C    0.052928  -0.000000
     2  C   -0.418867  -0.000000
     3  C   -0.485406  -0.000000
     4  C    0.240931  -0.000000
     5  C    0.459865  -0.000000
     6  C    0.062589  -0.000000
     7  C   -2.103775  -0.000000
     8  C   -0.918610  -0.000000
     9  C    0.798115  -0.000000
    10  C    0.986667   0.000000
    11  C    1.312655   0.000000
    12  C   -2.132975  -0.000000
    13  C    0.061250   0.000000
    14  C    0.303423   0.000000
    15  O   -0.393449  -0.000000
    16  O   -0.475433   0.000000
    17  H    0.138984   0.000000
    18  H    0.081360   0.000000
    19  H    0.076110  -0.000000
    20  H    0.133762  -0.000000
    21  Br  -0.356393  -0.000000
    22  H    0.191777  -0.000000
    23  N   -0.096912   0.000000
    24  Cl   0.223798  -0.000000
    25  H    0.146801  -0.000000
    26  H    0.110804   0.000000
 Sum of Mulliken charges =  -2.00000   0.00000

 Dipole moment (field-independent basis, Debye):
    X=             12.4864    Y=            -31.5306    Z=             18.3999  Tot=             38.5830
 Quadrupole moment (field-independent basis, Debye-Ang):
   XX=           -164.4458   YY=           -301.8834   ZZ=           -243.8983
   XY=             52.4285   XZ=            -35.6178   YZ=             48.5248

  Exact polarizability: 178.467  67.836 778.299  91.165 373.986 774.192
 Approx polarizability: 274.768  47.2171153.717 165.419 583.5791243.078

                      1                      2                      3
                      A                      A                      A
 Frequencies --     29.7047                42.4484                81.2333
 Red. masses --     11.1374                 8.1604                 7.9464
 Frc consts  --      0.0058                 0.0087                 0.0309
 IR Inten    --      7.2621                 5.0314                22.3376

                      4                      5                      6
                      A                      A                      A
 Frequencies --    119.8900               123.8675               139.2399
 Red. masses --     10.0407                 5.7126                 6.7633
 Frc consts  --      0.0850                 0.0516                 0.0773
 IR Inten    --      4.0253                 3.0093                 1.8852

                      7                      8                      9
                      A                      A                      A
 Frequencies --    172.8677               187.8792               191.4801
 Red. masses --     18.6192                 7.0574                 9.7147
 Frc consts  --      0.3278                 0.1468                 0.2099
 IR Inten    --    106.5320                 1.5393                23.0329

                     10                     11                     12
                      A                      A                      A
 Frequencies --    262.7413               268.2737               289.5784
 Red. masses --      5.4866                 4.9460                 1.3265
 Frc consts  --      0.2232                 0.2097                 0.0655
 IR Inten    --     28.2729                31.5772                13.9400

                     13                     14                     15
                      A                      A                      A
 Frequencies --    303.8527               311.9230               335.1107
 Red. masses --      7.0961                 7.4517                 5.5259
 Frc consts  --      0.3860                 0.4272                 0.3656
 IR Inten    --      9.4975                17.4059                11.2185

                     16                     17                     18
                      A                      A                      A
 Frequencies --    359.4369               371.5991               404.7191
 Red. masses --      7.5727                10.3008                 7.1170
 Frc consts  --      0.5764                 0.8380                 0.6868
 IR Inten    --      1.2824                20.0967                65.6591

                     19                     20                     21
                      A                      A                      A
 Frequencies --    438.9139               462.8180               479.0618
 Red. masses --      4.1073                 7.0639                 6.9596
 Frc consts  --      0.4662                 0.8915                 0.9411
 IR Inten    --     96.9742                21.4839               297.8126

                     22                     23                     24
                      A                      A                      A
 Frequencies --    499.3090               527.5110               541.3807
 Red. masses --      5.2090                 5.3833                 5.2035
 Frc consts  --      0.7651                 0.8826                 0.8986
 IR Inten    --     59.5559                15.9262                16.7175

                     25                     26                     27
                      A                      A                      A
 Frequencies --    601.2829               628.7089               653.4974
 Red. masses --      6.8944                 4.6570                 7.0294
 Frc consts  --      1.4686                 1.0846                 1.7687
 IR Inten    --     17.7930               121.0268                52.8807

                     28                     29                     30
                      A                      A                      A
 Frequencies --    686.3973               690.6807               703.7560
 Red. masses --      6.7452                 1.9438                 4.6435
 Frc consts  --      1.8724                 0.5463                 1.3550
 IR Inten    --     12.1234                70.9352                16.2273

                     31                     32                     33
                      A                      A                      A
 Frequencies --    734.1195               741.5760               758.2842
 Red. masses --      4.4938                 5.3453                 2.6274
 Frc consts  --      1.4269                 1.7320                 0.8901
 IR Inten    --     18.2406                87.0812                14.1810

                     34                     35                     36
                      A                      A                      A
 Frequencies --    779.0528               783.5257               821.0141
 Red. masses --      2.1764                 2.1107                 2.5240
 Frc consts  --      0.7783                 0.7635                 1.0024
 IR Inten    --     18.1436                21.3733                 5.3612

                     37                     38                     39
                      A                      A                      A
 Frequencies --    869.7182               932.5356               938.8680
 Red. masses --      5.1229                 1.4337                 8.2082
 Frc consts  --      2.2831                 0.7346                 4.2629
 IR Inten    --     36.5865                33.9706                25.2176

                     40                     41                     42
                      A                      A                      A
 Frequencies --    958.7935               968.8380               992.0894
 Red. masses --      1.2737                 1.3247                 3.8147
 Frc consts  --      0.6899                 0.7326                 2.2122
 IR Inten    --      1.7855                 2.6878               133.2699

                     43                     44                     45
                      A                      A                      A
 Frequencies --   1017.7847              1093.3710              1111.7668
 Red. masses --      2.0090                 2.5196                 2.2836
 Frc consts  --      1.2261                 1.7746                 1.6630
 IR Inten    --    176.6632                66.7442               108.4196

                     46                     47                     48
                      A                      A                      A
 Frequencies --   1122.5208              1138.5022              1173.5613
 Red. masses --      1.9819                 2.0971                 1.7831
 Frc consts  --      1.4714                 1.6015                 1.4469
 IR Inten    --     57.5196                23.7933                 3.1127

                     49                     50                     51
                      A                      A                      A
 Frequencies --   1202.1832              1213.7805              1249.1482
 Red. masses --      2.3861                 2.0932                 3.4779
 Frc consts  --      2.0318                 1.8170                 3.1974
 IR Inten    --    276.9611               174.8877               112.8430

                     52                     53                     54
                      A                      A                      A
 Frequencies --   1290.4211              1322.7083              1349.8169
 Red. masses --      2.7685                 5.3144                 8.5780
 Frc consts  --      2.7162                 5.4781                 9.2084
 IR Inten    --     93.5740               428.9146                 2.4252

                     55                     56                     57
                      A                      A                      A
 Frequencies --   1367.2399              1413.6241              1457.2629
 Red. masses --      2.7969                 5.0374                 4.4775
 Frc consts  --      3.0804                 5.9310                 5.6023
 IR Inten    --    422.1691               204.0586               162.0355

                     58                     59                     60
                      A                      A                      A
 Frequencies --   1463.7821              1472.4349              1483.3083
 Red. masses --      3.1510                 7.1877                 4.5791
 Frc consts  --      3.9779                 9.1815                 5.9359
 IR Inten    --    190.3216               412.3442               480.6003

                     61                     62                     63
                      A                      A                      A
 Frequencies --   1508.8904              1557.3024              1568.5834
 Red. masses --      6.2671                 5.7416                 8.1818
 Frc consts  --      8.4068                 8.2040                11.8608
 IR Inten    --    216.3209               737.8748               808.5131

                     64                     65                     66
                      A                      A                      A
 Frequencies --   1591.1557              1608.0040              3093.5524
 Red. masses --      5.3944                 1.2050                 1.0828
 Frc consts  --      8.0466                 1.8357                 6.1052
 IR Inten    --      2.7666                12.1099                40.7679

                     67                     68                     69
                      A                      A                      A
 Frequencies --   3117.1764              3160.0706              3164.0045
 Red. masses --      1.0907                 1.0906                 1.0910
 Frc consts  --      6.2444                 6.4169                 6.4348
 IR Inten    --    216.0488                45.5949                99.8053

                     70                     71                     72
                      A                      A                      A
 Frequencies --   3177.7121              3482.7584              3588.8309
 Red. masses --      1.0893                 1.0464                 1.0969
 Frc consts  --      6.4806                 7.4783                 8.3240
 IR Inten    --      0.9813              1002.5590                57.6777

 - Thermochemistry -
 -------------------
 Temperature   298.150 Kelvin.  Pressure   1.00000 Atm.
 Atom     1 has atomic number  6 and mass  12.00000

 Molecular mass:   334.93487 amu.
 Principal axes and moments of inertia in atomic units:
                           1         2         3
     Eigenvalues --  3757.09465********************
           X            0.08439  -0.19971   0.97621
           Y            0.57021   0.81312   0.11706
           Z            0.81715  -0.54677  -0.18250
 This molecule is an asymmetric top.
 Rotational symmetry number  1.
 Warning -- assumption of classical behavior for rotation
           may cause significant error
 Rotational temperatures (Kelvin)      0.02305     0.00806     0.00601
 Rotational constants (GHZ):           0.48036     0.16795     0.12526
 Zero-point vibrational energy     447097.3 (Joules/Mol)
                                  106.85883 (Kcal/Mol)
 Warning -- explicit consideration of  25 degrees of freedom as
           vibrations may cause significant error
 Vibrational temperatures:     42.74    61.07   116.88   172.50   178.22
          (Kelvin)            200.34   248.72   270.32   275.50   378.03
                              385.99   416.64   437.18   448.79   482.15
                              517.15   534.65   582.30   631.50   665.89
                              689.26   718.39   758.97   778.93   865.11
                              904.57   940.24   987.57   993.74  1012.55
                             1056.23  1066.96  1091.00  1120.88  1127.32
                             1181.26  1251.33  1341.71  1350.82  1379.49
                             1393.94  1427.40  1464.37  1573.12  1599.58
                             1615.06  1638.05  1688.49  1729.67  1746.36
                             1797.25  1856.63  1903.08  1942.09  1967.15
                             2033.89  2096.68  2106.06  2118.51  2134.15
                             2170.96  2240.61  2256.84  2289.32  2313.56
                             4450.93  4484.92  4546.64  4552.30  4572.02
                             5010.91  5163.53

 Zero-point correction=                           0.170290 (Hartree/Particle)
 Thermal correction to Energy=                    0.186248
 Thermal correction to Enthalpy=                  0.187192
 Thermal correction to Gibbs Free Energy=         0.125589
 Sum of electronic and zero-point Energies=          -3777.303886
 Sum of electronic and thermal Energies=             -3777.287929
 Sum of electronic and thermal Enthalpies=           -3777.286985
 Sum of electronic and thermal Free Energies=        -3777.348588

                     E (Thermal)             CV                S
                      KCal/Mol        Cal/Mol-Kelvin    Cal/Mol-Kelvin
 Total                  116.872             61.322            129.654
 Electronic               0.000              0.000              0.000
 Translational            0.889              2.981             43.321
 Rotational               0.889              2.981             34.719
 Vibrational            115.095             55.360             51.615
 Vibration     1          0.593              1.984              5.849
 Vibration     2          0.595              1.980              5.141
 Vibration     3          0.600              1.962              3.861
 Vibration     4          0.609              1.933              3.102
 Vibration     5          0.610              1.929              3.039
 Vibration     6          0.615              1.914              2.814
 Vibration     7          0.626              1.876              2.404
 Vibration     8          0.633              1.856              2.249
 Vibration     9          0.634              1.852              2.213
 Vibration    10          0.670              1.741              1.643
 Vibration    11          0.673              1.731              1.607
 Vibration    12          0.686              1.693              1.476
 Vibration    13          0.695              1.666              1.396
 Vibration    14          0.700              1.651              1.352
 Vibration    15          0.716              1.605              1.235
 Vibration    16          0.734              1.556              1.125
 Vibration    17          0.743              1.530              1.073
 Vibration    18          0.770              1.460              0.945
 Vibration    19          0.799              1.385              0.830
 Vibration    20          0.820              1.333              0.758
 Vibration    21          0.835              1.296              0.713
 Vibration    22          0.855              1.252              0.660
 Vibration    23          0.882              1.189              0.593
 Vibration    24          0.896              1.159              0.562
 Vibration    25          0.960              1.029              0.447

                           ! Non-Optimized Parameters !
 Normal termination of Gaussian 16 at Wed Dec 27 22:23:52 2023.
