 Gaussian 16, Revision A.03,
 Gaussian 16:  ES64L-G16RevA.03 25-Dec-2016

 ----------------------------------------------------------------
 #P UB3LYP/6-311++G(d,p) SCRF=(PCM,Solvent=n,n-DiMethylFormamide)
 ----------------------------------------------------------------

 -------
 Reduced
 -------
 Symbolic Z-matrix:
 Charge = -2 Multiplicity = 1

                         Standard orientation:
 ---------------------------------------------------------------------
 Center     Atomic      Atomic             Coordinates (Angstroms)
 Number     Number       Type             X           Y           Z
 ---------------------------------------------------------------------
      1          6           0        4.214616    0.787076   -0.218304
      2          6           0        5.307259   -0.053627   -0.152768
      3          6           0        5.112553   -1.450472    0.025610
      4          6           0        2.883803    0.310296   -0.106196
      5          6           0        2.690516   -1.106112    0.075783
      6          6           0        3.829931   -1.946885    0.136467
      7          6           0        1.794532    1.278986   -0.193639
      8          6           0        1.370963   -1.686069    0.196406
      9          6           0        0.474720    0.717485   -0.013694
     10          6           0        0.285700   -0.728662    0.118287
     11          6           0       -0.734188    1.491950    0.025163
     12          6           0       -2.017626    0.973584    0.065632
     13          6           0       -2.117943   -0.448873    0.083691
     14          6           0       -1.021542   -1.260586    0.102500
     15          8           0        2.038510    2.514773   -0.412935
     16          8           0        1.177530   -2.944798    0.335649
     17          1           0        4.328384    1.857336   -0.357905
     18          1           0        6.314885    0.349966   -0.237494
     19          1           0        5.968737   -2.121156    0.072151
     20          1           0        3.641433   -3.007421    0.271585
     21         35           0       -3.910057   -1.279259   -0.185049
     22          1           0       -1.099376   -2.341699    0.104360
     23          7           0       -3.181995    1.772881    0.139538
     24         17           0       -0.664893    3.280768    0.248727
     25          1           0       -2.972962    2.698602    0.494870
     26          1           0       -3.920024    1.326880    0.672669
 ---------------------------------------------------------------------

 SCF Done:  E(UB3LYP) =  -3777.72329066     A.U. after   19 cycles

 The electronic state is 1-A.
 Alpha  occ. eigenvalues -- -482.82233-101.53482 -62.47502 -56.29522 -56.29159
 Alpha  occ. eigenvalues --  -56.29153 -19.02664 -19.01552 -14.31251 -10.21383
 Alpha  occ. eigenvalues --  -10.21272 -10.21156 -10.18140 -10.17927 -10.16351
 Alpha  occ. eigenvalues --  -10.15411 -10.15217 -10.15156 -10.14891 -10.14671
 Alpha  occ. eigenvalues --  -10.14634 -10.14029 -10.13971  -9.44945  -8.68442
 Alpha  occ. eigenvalues --   -7.21362  -7.20469  -7.20398  -6.51509  -6.50323
 Alpha  occ. eigenvalues --   -6.50309  -2.62605  -2.62273  -2.62262  -2.61322
 Alpha  occ. eigenvalues --   -2.61321  -0.94735  -0.94045  -0.92065  -0.84478
 Alpha  occ. eigenvalues --   -0.82911  -0.82451  -0.78120  -0.74544  -0.72505
 Alpha  occ. eigenvalues --   -0.71611  -0.70297  -0.63915  -0.61192  -0.59324
 Alpha  occ. eigenvalues --   -0.56969  -0.53517  -0.51743  -0.50761  -0.48664
 Alpha  occ. eigenvalues --   -0.46553  -0.43884  -0.43270  -0.42769  -0.41403
 Alpha  occ. eigenvalues --   -0.40417  -0.40139  -0.39252  -0.38124  -0.37155
 Alpha  occ. eigenvalues --   -0.36896  -0.36272  -0.34126  -0.33675  -0.32886
 Alpha  occ. eigenvalues --   -0.32298  -0.31987  -0.30951  -0.30327  -0.29986
 Alpha  occ. eigenvalues --   -0.28664  -0.27785  -0.23398  -0.22709  -0.22328
 Alpha  occ. eigenvalues --   -0.20666  -0.20424  -0.19155  -0.10769
 Alpha virt. eigenvalues --   -0.03479  -0.02502  -0.00064   0.00045   0.00617
 Alpha virt. eigenvalues --    0.01158   0.01542   0.02246   0.02391   0.03567
 Alpha virt. eigenvalues --    0.04193   0.04644   0.04871   0.05488   0.05864

  Beta  occ. eigenvalues -- -482.82233-101.53482 -62.47502 -56.29522 -56.29159
  Beta  occ. eigenvalues --  -56.29153 -19.02664 -19.01552 -14.31251 -10.21383
  Beta  occ. eigenvalues --  -10.21272 -10.21156 -10.18140 -10.17927 -10.16351
  Beta  occ. eigenvalues --  -10.15411 -10.15217 -10.15156 -10.14891 -10.14671
  Beta  occ. eigenvalues --  -10.14634 -10.14029 -10.13971  -9.44945  -8.68442
  Beta  occ. eigenvalues --   -7.21362  -7.20469  -7.20398  -6.51509  -6.50323
  Beta  occ. eigenvalues --   -6.50309  -2.62605  -2.62273  -2.62262  -2.61322
  Beta  occ. eigenvalues --   -2.61321  -0.94735  -0.94045  -0.92065  -0.84478
  Beta  occ. eigenvalues --   -0.82911  -0.82451  -0.78120  -0.74544  -0.72505
  Beta  occ. eigenvalues --   -0.71611  -0.70297  -0.63915  -0.61192  -0.59324
  Beta  occ. eigenvalues --   -0.56969  -0.53517  -0.51743  -0.50761  -0.48664
  Beta  occ. eigenvalues --   -0.46553  -0.43884  -0.43270  -0.42769  -0.41403
  Beta  occ. eigenvalues --   -0.40417  -0.40139  -0.39252  -0.38124  -0.37155
  Beta  occ. eigenvalues --   -0.36896  -0.36272  -0.34126  -0.33675  -0.32886
  Beta  occ. eigenvalues --   -0.32298  -0.31987  -0.30951  -0.30327  -0.29986
  Beta  occ. eigenvalues --   -0.28664  -0.27785  -0.23398  -0.22709  -0.22328
  Beta  occ. eigenvalues --   -0.20666  -0.20424  -0.19155  -0.10769
  Beta virt. eigenvalues --   -0.03479  -0.02502  -0.00064   0.00045   0.00617
  Beta virt. eigenvalues --    0.01158   0.01542   0.02246   0.02391   0.03567
  Beta virt. eigenvalues --    0.04193   0.04644   0.04871   0.05488   0.05864

 Mulliken charges and spin densities:
               1          2
     1  C    0.038287  -0.000000
     2  C   -0.492507  -0.000000
     3  C   -0.553677   0.000000
     4  C    0.068623   0.000000
     5  C    0.273534   0.000000
     6  C    0.067841   0.000000
     7  C   -1.797609  -0.000000
     8  C   -0.641032  -0.000000
     9  C    0.751633  -0.000000
    10  C    0.716613   0.000000
    11  C    1.164970   0.000000
    12  C   -1.741790  -0.000000
    13  C    0.116759  -0.000000
    14  C    0.092279  -0.000000
    15  O   -0.549214  -0.000000
    16  O   -0.615655   0.000000
    17  H    0.149135   0.000000
    18  H    0.161249  -0.000000
    19  H    0.157940   0.000000
    20  H    0.150001   0.000000
    21  Br  -0.212925  -0.000000
    22  H    0.197522  -0.000000
    23  N   -0.177573   0.000000
    24  Cl   0.186845  -0.000000
    25  H    0.243985   0.000000
    26  H    0.244767  -0.000000
 Sum of Mulliken charges =  -2.00000  -0.00000

 Dipole moment (field-independent basis, Debye):
    X=            -11.4785    Y=              0.5407    Z=              1.6546  Tot=             11.6098
 Quadrupole moment (field-independent basis, Debye-Ang):
   XX=           -184.6756   YY=           -194.0737   ZZ=           -142.1820
   XY=             -6.2098   XZ=             -4.2209   YZ=              9.1207

 Normal termination of Gaussian 16 at Sun Jan 14 01:29:25 2024.
