 Q-Chem 5.4, Q-Chem, Inc., Pleasanton, CA (2021)
 Q-Chem 5.4.0 for Intel X86 EM64T Linux

User input:
--------------------------------------------------------------
$molecule
-1 2
C                  2.9196630000      0.2595630000     -0.0793570000
C                  1.4227190000      0.1068450000     -0.0274990000
C                  0.8179140000     -0.9684070000      0.5743510000
C                 -0.6149950000     -1.1517840000      0.6454460000
O                 -1.1412070000     -2.1574240000      1.2092370000
C                 -1.4227210000     -0.1068170000      0.0274380000
C                 -0.8179380000      0.9683810000     -0.5744230000
C                  0.6150100000      1.1517430000     -0.6455350000
O                  1.1411480000      2.1574010000     -1.2093880000
C                 -2.9196670000     -0.2595350000      0.0794480000
H                  3.4178960000     -0.5803780000      0.4139910000
H                  3.2365690000      1.1915940000      0.4016890000
H                  3.2727620000      0.3224140000     -1.1146790000
H                  1.4176990000     -1.7499680000      1.0364780000
H                 -1.4176610000      1.7499660000     -1.0365920000
H                 -3.2726160000     -0.3224690000      1.1148120000
H                 -3.4179300000      0.5804260000     -0.4138220000
H                 -3.2366430000     -1.1915510000     -0.4015940000
$end
$rem
MAX_SCF_CYCLES=200
BASIS  =  6-311++G(d,p)
GUI  =  2
JOB_TYPE  =  SP
METHOD  =  B3LYP
SOLVENT_METHOD = PCM
$end
$pcm
theory = CPCM
$end
$solvent
dielectric 37.219
opticaldielectric 1.43
$end

--------------------------------------------------------------

             Standard Nuclear Orientation (Angstroms)
    I     Atom           X                Y                Z
 ----------------------------------------------------------------
    1      C       2.9196630000     0.2595630000    -0.0793570000
    2      C       1.4227190000     0.1068450000    -0.0274990000
    3      C       0.8179140000    -0.9684070000     0.5743510000
    4      C      -0.6149950000    -1.1517840000     0.6454460000
    5      O      -1.1412070000    -2.1574240000     1.2092370000
    6      C      -1.4227210000    -0.1068170000     0.0274380000
    7      C      -0.8179380000     0.9683810000    -0.5744230000
    8      C       0.6150100000     1.1517430000    -0.6455350000
    9      O       1.1411480000     2.1574010000    -1.2093880000
   10      C      -2.9196670000    -0.2595350000     0.0794480000
   11      H       3.4178960000    -0.5803780000     0.4139910000
   12      H       3.2365690000     1.1915940000     0.4016890000
   13      H       3.2727620000     0.3224140000    -1.1146790000
   14      H       1.4176990000    -1.7499680000     1.0364780000
   15      H      -1.4176610000     1.7499660000    -1.0365920000
   16      H      -3.2726160000    -0.3224690000     1.1148120000
   17      H      -3.4179300000     0.5804260000    -0.4138220000
   18      H      -3.2366430000    -1.1915510000    -0.4015940000
 ----------------------------------------------------------------

    8    -460.3847973105      6.95e-06  Convergence criterion met
 Total energy in the final basis set =     -460.3847973105

                    Orbital Energies (a.u.)
 --------------------------------------------------------------

 Alpha MOs
 -- Occupied --
-19.0754 -19.0754 -10.2151 -10.2151 -10.1691 -10.1691 -10.1547 -10.1547
-10.1544 -10.1544  -0.9963  -0.9939  -0.8243  -0.7749  -0.7069  -0.6905
 -0.6349  -0.5862  -0.5372  -0.4824  -0.4547  -0.4337  -0.4268  -0.4083
 -0.4010  -0.3999  -0.3889  -0.3721  -0.3675  -0.3655  -0.3570  -0.3453
 -0.2752  -0.2426  -0.2425  -0.2355  -0.1587

 Beta MOs
 -- Occupied --
-19.0689 -19.0689 -10.2134 -10.2134 -10.1677 -10.1677 -10.1548 -10.1548
-10.1537 -10.1536  -0.9848  -0.9821  -0.8184  -0.7724  -0.7053  -0.6837
 -0.6295  -0.5821  -0.5327  -0.4803  -0.4505  -0.4299  -0.4173  -0.4042
 -0.3985  -0.3964  -0.3869  -0.3667  -0.3585  -0.3541  -0.3430  -0.3385
 -0.2445  -0.2365  -0.2350  -0.2297

          Ground-State Mulliken Net Atomic Charges

     Atom                 Charge (a.u.)    Spin (a.u.)
  --------------------------------------------------------
      1 C                    -0.440294       0.003791
      2 C                     1.111649       0.110083
      3 C                    -0.621492       0.028642
      4 C                    -0.682626       0.118101
      5 O                    -0.527141       0.235972
      6 C                     1.111463       0.110050
      7 C                    -0.621546       0.028598
      8 C                    -0.682724       0.118098
      9 O                    -0.527148       0.235984
     10 C                    -0.440277       0.003791
     11 H                     0.155966      -0.000262
     12 H                     0.169267       0.005173
     13 H                     0.169267       0.005162
     14 H                     0.165566      -0.006627
     15 H                     0.165577      -0.006625
     16 H                     0.169269       0.005160
     17 H                     0.155957      -0.000262
     18 H                     0.169269       0.005172
  --------------------------------------------------------
  Sum of atomic charges =    -1.000000

                    Cartesian Multipole Moments
 -----------------------------------------------------------------
    Charge (ESU x 10^10)
                -4.8032
    Dipole Moment (Debye)
         X       0.0001      Y       0.0000      Z       0.0005
       Tot       0.0005
    Quadrupole Moments (Debye-Ang)
        XX     -65.7391     XY     -14.7603     YY     -89.8174
        XZ       8.4035     YZ      14.7889     ZZ     -71.6940

 Total job time:  23.38s(wall), 115.55s(cpu)
        *  Thank you very much for using Q-Chem.  Have a nice day.  *
