 Q-Chem 5.4, Q-Chem, Inc., Pleasanton, CA (2021)
 Q-Chem 5.4.0 for Intel X86 EM64T Linux

User input:
--------------------------------------------------------------
$molecule
-1 2
C                 -1.7755410000      2.7813910000     -0.6499010000
C                 -2.8793650000      1.9705980000     -0.4614620000
C                 -2.7006830000      0.5952630000     -0.2143270000
C                 -0.4595480000      2.2760990000     -0.5898460000
C                 -0.2755750000      0.8832000000     -0.3090330000
C                 -1.4199720000      0.0710800000     -0.1452310000
C                  0.6622130000      3.1942340000     -0.8324620000
C                  2.0361980000      2.6099440000     -0.7745310000
C                  2.1404180000      1.2028170000     -0.4388460000
C                  1.0727550000      0.3690170000     -0.2093880000
O                  0.4682310000      4.4063370000     -1.0769250000
O                  3.0599610000      3.2986980000     -0.9814940000
H                 -1.8817580000      3.8402190000     -0.8575840000
H                 -3.8805600000      2.3882510000     -0.5152990000
H                 -3.5602310000     -0.0563230000     -0.0892980000
H                 -1.3058950000     -0.9971380000      0.0084210000
H                  3.1581330000      0.8359950000     -0.3665610000
N                  1.2330800000     -1.0042780000      0.0937240000
C                  2.5526970000     -1.5330360000      0.3929560000
C                  2.4686530000     -3.0146450000      0.7525910000
H                  0.5432270000     -1.3250260000      0.7612790000
H                  3.0476270000     -0.9784630000      1.2084790000
H                  3.1846060000     -1.4076000000     -0.4916570000
H                  1.8533440000     -3.1713620000      1.6458740000
H                  3.4636460000     -3.4173980000      0.9631560000
H                  2.0278480000     -3.5895940000     -0.0664880000
$end

$rem
BASIS  =  6-311++G(d,p)
GUI  =  2
JOB_TYPE  =  SP
METHOD  =  B3LYP
SCF_CONVERGENCE  = 8
SOLVENT_METHOD = sm12
$end

$smx
solvent dimethylformamide
charges CM5
$end

--------------------------------------------------------------

             Standard Nuclear Orientation (Angstroms)
    I     Atom           X                Y                Z
 ----------------------------------------------------------------
    1      C      -1.7755410000     2.7813910000    -0.6499010000
    2      C      -2.8793650000     1.9705980000    -0.4614620000
    3      C      -2.7006830000     0.5952630000    -0.2143270000
    4      C      -0.4595480000     2.2760990000    -0.5898460000
    5      C      -0.2755750000     0.8832000000    -0.3090330000
    6      C      -1.4199720000     0.0710800000    -0.1452310000
    7      C       0.6622130000     3.1942340000    -0.8324620000
    8      C       2.0361980000     2.6099440000    -0.7745310000
    9      C       2.1404180000     1.2028170000    -0.4388460000
   10      C       1.0727550000     0.3690170000    -0.2093880000
   11      O       0.4682310000     4.4063370000    -1.0769250000
   12      O       3.0599610000     3.2986980000    -0.9814940000
   13      H      -1.8817580000     3.8402190000    -0.8575840000
   14      H      -3.8805600000     2.3882510000    -0.5152990000
   15      H      -3.5602310000    -0.0563230000    -0.0892980000
   16      H      -1.3058950000    -0.9971380000     0.0084210000
   17      H       3.1581330000     0.8359950000    -0.3665610000
   18      N       1.2330800000    -1.0042780000     0.0937240000
   19      C       2.5526970000    -1.5330360000     0.3929560000
   20      C       2.4686530000    -3.0146450000     0.7525910000
   21      H       0.5432270000    -1.3250260000     0.7612790000
   22      H       3.0476270000    -0.9784630000     1.2084790000
   23      H       3.1846060000    -1.4076000000    -0.4916570000
   24      H       1.8533440000    -3.1713620000     1.6458740000
   25      H       3.4636460000    -3.4173980000     0.9631560000
   26      H       2.0278480000    -3.5895940000    -0.0664880000
 ----------------------------------------------------------------

   18    -669.3258340326      4.04e-09  Convergence criterion met
 Total energy in the final basis set =     -669.4265535551

                    Orbital Energies (a.u.)
 --------------------------------------------------------------

 Alpha MOs
 -- Occupied --
-19.0707 -19.0639 -14.3284 -10.2166 -10.2125 -10.2110 -10.2030 -10.1884
-10.1851 -10.1821 -10.1809 -10.1774 -10.1765 -10.1650 -10.1559  -1.0040
 -0.9775  -0.9401  -0.8645  -0.8043  -0.7657  -0.7443  -0.7314  -0.6755
 -0.6354  -0.6156  -0.6006  -0.5702  -0.5294  -0.5051  -0.4950  -0.4800
 -0.4556  -0.4502  -0.4401  -0.4303  -0.4189  -0.4155  -0.3984  -0.3899
 -0.3833  -0.3786  -0.3702  -0.3649  -0.3535  -0.3452  -0.3419  -0.3217
 -0.2659  -0.2606  -0.2494  -0.2204  -0.2152  -0.1465

 Beta MOs
 -- Occupied --
-19.0636 -19.0588 -14.3274 -10.2148 -10.2115 -10.2092 -10.2030 -10.1872
-10.1854 -10.1813 -10.1806 -10.1768 -10.1761 -10.1649 -10.1565  -0.9933
 -0.9665  -0.9377  -0.8624  -0.8013  -0.7631  -0.7434  -0.7298  -0.6681
 -0.6337  -0.6147  -0.5974  -0.5676  -0.5277  -0.5033  -0.4932  -0.4780
 -0.4542  -0.4490  -0.4388  -0.4288  -0.4135  -0.4058  -0.3941  -0.3869
 -0.3806  -0.3739  -0.3636  -0.3597  -0.3520  -0.3425  -0.3281  -0.3041
 -0.2568  -0.2502  -0.2429  -0.2112  -0.2094

          Ground-State Mulliken Net Atomic Charges

     Atom                 Charge (a.u.)    Spin (a.u.)
  --------------------------------------------------------
      1 C                    -0.555945       0.065551
      2 C                     0.809177       0.010006
      3 C                     1.069322       0.075788
      4 C                    -0.849916       0.054843
      5 C                    -0.851659       0.067429
      6 C                     0.533207      -0.009953
      7 C                    -1.531581       0.088565
      8 C                    -2.443599       0.121472
      9 C                    -0.163630      -0.060736
     10 C                     0.543114       0.084739
     11 O                    -0.383198       0.270088
     12 O                    -0.418900       0.188094
     13 H                     0.095425      -0.004499
     14 H                     0.316989      -0.001524
     15 H                     0.374200      -0.005543
     16 H                     0.338052       0.003047
     17 H                     0.084778       0.001713
     18 N                     0.311078       0.044317
     19 C                     0.084951      -0.004164
     20 C                     0.391699       0.002403
     21 H                     0.366037       0.000734
     22 H                     0.140236       0.006646
     23 H                     0.139763       0.001185
     24 H                     0.177178      -0.000107
     25 H                     0.246977      -0.000461
     26 H                     0.176246       0.000369
  --------------------------------------------------------
  Sum of atomic charges =    -1.000000

                    Cartesian Multipole Moments
 -----------------------------------------------------------------
    Charge (ESU x 10^10)
                -4.8032
    Dipole Moment (Debye)
         X      -6.4296      Y     -18.6465      Z       5.7356
       Tot      20.5409
    Quadrupole Moments (Debye-Ang)
        XX    -113.1992     XY     -29.7784     YY    -159.3014
        XZ       8.9183     YZ      15.5966     ZZ     -99.6227

 Total job time:  540.30s(wall), 4186.26s(cpu)
        *  Thank you very much for using Q-Chem.  Have a nice day.  *
