 Gaussian 16, Revision A.03,
 Gaussian 16:  ES64L-G16RevA.03 25-Dec-2016

 --------------------------------------
 #P UB3LYP/6-311++G(d,p) nosym opt freq
 --------------------------------------

 -------
 Radical
 -------
 Symbolic Z-matrix:
 Charge = -1 Multiplicity = 2

 SCF Done:  E(UB3LYP) =  -692.620314211     A.U. after   22 cycles
 SCF Done:  E(UB3LYP) =  -692.634239783     A.U. after   16 cycles
 SCF Done:  E(UB3LYP) =  -692.635040484     A.U. after   16 cycles
 SCF Done:  E(UB3LYP) =  -692.635107148     A.U. after   14 cycles
 SCF Done:  E(UB3LYP) =  -692.635113578     A.U. after   12 cycles
 SCF Done:  E(UB3LYP) =  -692.635113798     A.U. after   10 cycles
 SCF Done:  E(UB3LYP) =  -692.635113872     A.U. after   10 cycles
 Optimization completed.
    -- Stationary point found.
 Normal termination of Gaussian 16 at Tue Dec 26 20:47:27 2023.

 ----------------------------------------------------------------------
 #P Geom=AllCheck Guess=TCheck SCRF=Check GenChk UB3LYP/6-311++G(d,p) F
 req
 ----------------------------------------------------------------------

 Structure from the checkpoint file:  "256-rad.chk"
 -------
 Radical
 -------
 Charge = -1 Multiplicity = 2

                          Input orientation:
 ---------------------------------------------------------------------
 Center     Atomic      Atomic             Coordinates (Angstroms)
 Number     Number       Type             X           Y           Z
 ---------------------------------------------------------------------
      1          6           0       -1.536874    2.791090    0.022092
      2          6           0       -2.800074    2.214749    0.017171
      3          6           0       -2.906285    0.796996    0.006590
      4          6           0       -0.356306    2.027817    0.017031
      5          6           0       -0.463509    0.617387    0.006480
      6          6           0       -1.743980    0.038964    0.001526
      7          6           0        0.954171    2.693737    0.022710
      8          6           0        2.122070    1.832791    0.016580
      9          6           0        2.013127    0.445467    0.006189
     10          6           0        0.734759   -0.232118    0.000797
     11          8           0        1.039122    3.955110    0.031731
     12          8           0        0.648926   -1.492500   -0.009001
     13          6           0        3.463411    2.530898    0.022171
     14          6           0        3.217738   -0.463697   -0.000270
     15          1           0       -1.424624    3.870301    0.030171
     16          6           0       -4.024060    3.106084    0.023165
     17          6           0       -4.246497    0.086487    0.000686
     18          1           0        3.298824    3.608646    0.030299
     19          1           0        4.061994    2.277582   -0.861483
     20          1           0        4.061593    2.264217    0.902155
     21          1           0        4.158592    0.087623    0.004160
     22          1           0        3.198912   -1.120437   -0.877295
     23          1           0        3.198370   -1.133537    0.866777
     24          1           0       -1.793563   -1.045820   -0.006558
     25          1           0       -3.725386    4.156760    0.031152
     26          1           0       -4.657156    2.936127    0.902538
     27          1           0       -4.656214    2.949256   -0.859319
     28          1           0       -5.090235    0.778238    0.005272
     29          1           0       -4.351834   -0.564401    0.875937
     30          1           0       -4.350881   -0.551584   -0.884064
 ---------------------------------------------------------------------

 SCF Done:  E(UB3LYP) =  -692.635113872     A.U. after    1 cycles

 Alpha  occ. eigenvalues --  -18.93322 -18.93261 -10.08047 -10.07885 -10.06658
 Alpha  occ. eigenvalues --  -10.06578 -10.05993 -10.05935 -10.03932 -10.03918
 Alpha  occ. eigenvalues --  -10.03705 -10.03653 -10.03630 -10.03502 -10.03476
 Alpha  occ. eigenvalues --  -10.03338  -0.85744  -0.85450  -0.73705  -0.68974
 Alpha  occ. eigenvalues --   -0.65619  -0.64775  -0.59956  -0.58709  -0.58259
 Alpha  occ. eigenvalues --   -0.53340  -0.51016  -0.47187  -0.44561  -0.41863
 Alpha  occ. eigenvalues --   -0.37710  -0.35417  -0.35064  -0.32725  -0.31576
 Alpha  occ. eigenvalues --   -0.30592  -0.30540  -0.30165  -0.29934  -0.27891
 Alpha  occ. eigenvalues --   -0.27813  -0.27203  -0.26910  -0.25926  -0.25904
 Alpha  occ. eigenvalues --   -0.25671  -0.24704  -0.23204  -0.22778  -0.20935
 Alpha  occ. eigenvalues --   -0.20372  -0.20311  -0.12893  -0.12179  -0.10661
 Alpha  occ. eigenvalues --   -0.10342  -0.09373  -0.01135
 Alpha virt. eigenvalues --    0.07205   0.09003   0.09102   0.09283   0.10697
 Alpha virt. eigenvalues --    0.11040   0.11103   0.11387   0.12156   0.12688
 Alpha virt. eigenvalues --    0.13029   0.13324   0.13594   0.14879   0.15049

  Beta  occ. eigenvalues --  -18.92661 -18.92633 -10.07907 -10.07744 -10.06662
  Beta  occ. eigenvalues --  -10.06581 -10.05959 -10.05897 -10.03934 -10.03921
  Beta  occ. eigenvalues --  -10.03643 -10.03590 -10.03505 -10.03485 -10.03351
  Beta  occ. eigenvalues --  -10.03337  -0.84638  -0.84316  -0.73569  -0.68501
  Beta  occ. eigenvalues --   -0.65492  -0.64695  -0.59641  -0.58589  -0.58090
  Beta  occ. eigenvalues --   -0.53202  -0.50329  -0.47134  -0.44246  -0.41552
  Beta  occ. eigenvalues --   -0.37587  -0.35267  -0.34849  -0.32651  -0.31430
  Beta  occ. eigenvalues --   -0.30550  -0.30115  -0.30005  -0.29692  -0.27874
  Beta  occ. eigenvalues --   -0.27515  -0.27092  -0.26406  -0.25841  -0.25558
  Beta  occ. eigenvalues --   -0.24997  -0.24425  -0.23067  -0.20772  -0.20352
  Beta  occ. eigenvalues --   -0.20088  -0.19263  -0.11556  -0.10530  -0.09741
  Beta  occ. eigenvalues --   -0.09627  -0.08779
  Beta virt. eigenvalues --    0.05462   0.07203   0.09002   0.09099   0.09703
  Beta virt. eigenvalues --    0.10912   0.11041   0.11101   0.12065   0.12166
  Beta virt. eigenvalues --    0.12689   0.13030   0.13592   0.13670   0.14878

 Mulliken charges and spin densities:
               1          2
     1  C   -0.123561   0.014776
     2  C   -0.124750   0.026744
     3  C    0.347297   0.029055
     4  C    0.108221   0.045107
     5  C    0.583233   0.035843
     6  C    0.291191   0.016441
     7  C   -1.134391   0.080525
     8  C    0.345090   0.082205
     9  C    0.323453   0.091458
    10  C   -0.710960   0.080060
    11  O   -0.381825   0.244141
    12  O   -0.378458   0.234690
    13  C   -0.520779  -0.001970
    14  C   -0.472024   0.002626
    15  H    0.112336  -0.002411
    16  C   -0.592232  -0.002624
    17  C   -0.558306  -0.001655
    18  H    0.202945  -0.002273
    19  H    0.120770   0.005770
    20  H    0.120739   0.005767
    21  H    0.130438   0.000143
    22  H    0.155634   0.005995
    23  H    0.155644   0.005992
    24  H    0.142489  -0.002189
    25  H    0.165238   0.000083
    26  H    0.127625   0.001816
    27  H    0.127623   0.001817
    28  H    0.139468   0.000101
    29  H    0.148928   0.000984
    30  H    0.148924   0.000983
 Sum of Mulliken charges =  -1.00000   1.00000

 Dipole moment (field-independent basis, Debye):
    X=             -2.7265    Y=             -6.0316    Z=             -0.0550  Tot=              6.6194
 Quadrupole moment (field-independent basis, Debye-Ang):
   XX=           -111.0859   YY=           -142.1557   ZZ=           -101.1338
   XY=             -5.0718   XZ=             -0.0469   YZ=             -0.3189

  Exact polarizability: 281.778  -5.446 223.183   0.035   0.863 106.896
 Approx polarizability: 375.271   0.621 398.836   0.095   1.697 170.919

 ******    2 imaginary frequencies (negative Signs) ******

                      1                      2                      3
                      A                      A                      A
 Frequencies --   -160.6006               -81.5412                62.6569
 Red. masses --      1.0223                 1.0238                 4.3387
 Frc consts  --      0.0155                 0.0040                 0.0100
 IR Inten    --      0.0309                 0.0002                 7.6340

                      4                      5                      6
                      A                      A                      A
 Frequencies --     74.8582               112.4585               136.0785
 Red. masses --      3.1108                 1.8144                 5.1298
 Frc consts  --      0.0103                 0.0135                 0.0560
 IR Inten    --      0.0008                 0.0958                 2.2117

                      7                      8                      9
                      A                      A                      A
 Frequencies --    146.3330               180.6969               184.2325
 Red. masses --      1.4567                 1.1048                 4.0142
 Frc consts  --      0.0184                 0.0213                 0.0803
 IR Inten    --      0.0012                 0.2210                 3.1877

                     10                     11                     12
                      A                      A                      A
 Frequencies --    228.1343               239.1335               301.7513
 Red. masses --      3.8829                 3.3793                 2.9599
 Frc consts  --      0.1191                 0.1139                 0.1588
 IR Inten    --      0.0044                 0.7421                 1.8506

                     13                     14                     15
                      A                      A                      A
 Frequencies --    318.7990               332.8689               353.5504
 Red. masses --      3.3718                 2.8684                 4.3542
 Frc consts  --      0.2019                 0.1873                 0.3207
 IR Inten    --      1.6146                 0.6551                 6.6034

                     16                     17                     18
                      A                      A                      A
 Frequencies --    359.3132               367.0802               419.6157
 Red. masses --      5.0912                 4.8197                 7.1160
 Frc consts  --      0.3873                 0.3826                 0.7382
 IR Inten    --      5.4485                 1.0780                 9.1746

                     19                     20                     21
                      A                      A                      A
 Frequencies --    426.8189               451.6533               467.1116
 Red. masses --      5.4299                 3.0053                 3.8433
 Frc consts  --      0.5828                 0.3612                 0.4941
 IR Inten    --      0.0008                 2.5740                 2.3012

                     22                     23                     24
                      A                      A                      A
 Frequencies --    508.3227               567.5338               575.7570
 Red. masses --     10.2484                 4.3286                 4.7066
 Frc consts  --      1.5602                 0.8215                 0.9193
 IR Inten    --      0.0092                 8.6884                 0.0001

                     25                     26                     27
                      A                      A                      A
 Frequencies --    661.7825               679.2804               688.4686
 Red. masses --      4.5555                 5.5030                 3.9891
 Frc consts  --      1.1755                 1.4961                 1.1140
 IR Inten    --      9.0014                 3.1740                 0.0147

                     28                     29                     30
                      A                      A                      A
 Frequencies --    720.4709               744.5075               748.1265
 Red. masses --      5.8087                 4.0405                 4.2901
 Frc consts  --      1.7765                 1.3195                 1.4147
 IR Inten    --     11.1110                11.7642                 3.7438

                     31                     32                     33
                      A                      A                      A
 Frequencies --    794.8191               912.0317               926.6771
 Red. masses --      5.2543                 2.5330                 1.3706
 Frc consts  --      1.9557                 1.2414                 0.6934
 IR Inten    --      0.0003                 5.0347                 6.2840

                     34                     35                     36
                      A                      A                      A
 Frequencies --    928.6865               929.9790               997.6452
 Red. masses --      3.1083                 1.3532                 1.4512
 Frc consts  --      1.5795                 0.6895                 0.8510
 IR Inten    --      3.6531                 8.0858                 0.1673

                     37                     38                     39
                      A                      A                      A
 Frequencies --   1020.9411              1029.9724              1032.9393
 Red. masses --      1.5207                 1.4258                 1.6721
 Frc consts  --      0.9339                 0.8911                 1.0512
 IR Inten    --      7.3180                 0.0239                 3.0623

                     40                     41                     42
                      A                      A                      A
 Frequencies --   1042.5648              1050.8695              1057.2020
 Red. masses --      1.4403                 1.5188                 1.5360
 Frc consts  --      0.9224                 0.9882                 1.0115
 IR Inten    --      3.8130                 0.0242                 0.2826

                     43                     44                     45
                      A                      A                      A
 Frequencies --   1102.3393              1117.4870              1155.0618
 Red. masses --      4.8488                 2.7166                 1.8410
 Frc consts  --      3.4715                 1.9987                 1.4471
 IR Inten    --     28.7831                13.1328                 0.0134

                     46                     47                     48
                      A                      A                      A
 Frequencies --   1207.4465              1220.2431              1256.4317
 Red. masses --      5.0240                 5.4905                 2.3567
 Frc consts  --      4.3155                 4.8167                 2.1919
 IR Inten    --     12.5123                13.3106                13.5776

                     49                     50                     51
                      A                      A                      A
 Frequencies --   1262.2474              1352.4234              1359.6378
 Red. masses --      2.0557                 7.5600                 2.6933
 Frc consts  --      1.9297                 8.1470                 2.9334
 IR Inten    --      5.6213                 7.9826                20.3429

                     52                     53                     54
                      A                      A                      A
 Frequencies --   1378.3743              1396.8806              1401.4757
 Red. masses --      1.6302                 1.2609                 1.3669
 Frc consts  --      1.8249                 1.4495                 1.5818
 IR Inten    --     90.7836                11.0147                 7.3474

                     55                     56                     57
                      A                      A                      A
 Frequencies --   1407.7624              1450.2184              1465.0387
 Red. masses --      1.2312                 2.4047                 1.8403
 Frc consts  --      1.4376                 2.9797                 2.3273
 IR Inten    --      3.6871                19.5976                17.3095

                     58                     59                     60
                      A                      A                      A
 Frequencies --   1470.0959              1480.0395              1480.5745
 Red. masses --      1.0463                 1.3115                 1.0455
 Frc consts  --      1.3323                 1.6926                 1.3503
 IR Inten    --      5.2431                 1.2914                 8.4252

                     61                     62                     63
                      A                      A                      A
 Frequencies --   1489.5057              1495.4583              1498.3628
 Red. masses --      1.3423                 2.1113                 1.0453
 Frc consts  --      1.7547                 2.7819                 1.3827
 IR Inten    --     33.1621                59.5388                 0.0008

                     64                     65                     66
                      A                      A                      A
 Frequencies --   1500.1161              1506.3620              1513.3916
 Red. masses --      1.3811                 1.0480                 3.8244
 Frc consts  --      1.8312                 1.4011                 5.1608
 IR Inten    --     83.7953                 3.1292                 1.4392

                     67                     68                     69
                      A                      A                      A
 Frequencies --   1519.0906              1542.0527              1609.1933
 Red. masses --      3.1123                 3.6290                 7.8060
 Frc consts  --      4.2316                 5.0843                11.9095
 IR Inten    --    440.9752                15.5740                 0.6505

                     70                     71                     72
                      A                      A                      A
 Frequencies --   1637.3023              2991.1448              2994.5264
 Red. masses --      6.6672                 1.0410                 1.0396
 Frc consts  --     10.5306                 5.4873                 5.4925
 IR Inten    --      0.7351               139.7232                87.5797

                     73                     74                     75
                      A                      A                      A
 Frequencies --   3008.2865              3010.4517              3025.9098
 Red. masses --      1.0407                 1.0394                 1.0994
 Frc consts  --      5.5487                 5.5502                 5.9309
 IR Inten    --    102.6577                83.2132                49.6598

                     76                     77                     78
                      A                      A                      A
 Frequencies --   3030.1861              3041.6429              3044.8087
 Red. masses --      1.0997                 1.0982                 1.1000
 Frc consts  --      5.9490                 5.9863                 6.0084
 IR Inten    --     40.7914                31.4075                29.9097

                     79                     80                     81
                      A                      A                      A
 Frequencies --   3085.4027              3100.8135              3106.6010
 Red. masses --      1.0960                 1.0945                 1.0961
 Frc consts  --      6.1474                 6.2003                 6.2325
 IR Inten    --     28.1240                31.6805                38.5451

                     82                     83                     84
                      A                      A                      A
 Frequencies --   3109.7988              3157.0621              3166.3407
 Red. masses --      1.0945                 1.0889                 1.0890
 Frc consts  --      6.2364                 6.3946                 6.4329
 IR Inten    --      3.3680                11.7105                11.9815

 - Thermochemistry -
 -------------------
 Temperature   298.150 Kelvin.  Pressure   1.00000 Atm.
 Atom     1 has atomic number  6 and mass  12.00000

 Molecular mass:   214.09938 amu.
 Principal axes and moments of inertia in atomic units:
                           1         2         3
     Eigenvalues --  1928.125734630.421866514.08312
           X            0.99716   0.07527  -0.00044
           Y           -0.07527   0.99714  -0.00744
           Z           -0.00012   0.00745   0.99997
 This molecule is an asymmetric top.
 Rotational symmetry number  1.
 Warning -- assumption of classical behavior for rotation
           may cause significant error
 Rotational temperatures (Kelvin)      0.04492     0.01871     0.01330
 Rotational constants (GHZ):           0.93601     0.38976     0.27705
    2 imaginary frequencies ignored.
 Zero-point vibrational energy     627616.7 (Joules/Mol)
                                  150.00398 (Kcal/Mol)
 Warning -- explicit consideration of  22 degrees of freedom as
           vibrations may cause significant error
 Vibrational temperatures:     90.15   107.70   161.80   195.79   210.54
          (Kelvin)            259.98   265.07   328.23   344.06   434.15
                              458.68   478.92   508.68   516.97   528.15
                              603.73   614.10   649.83   672.07   731.36
                              816.55   828.39   952.16   977.33   990.55
                             1036.60  1071.18  1076.39  1143.57  1312.21
                             1333.28  1336.17  1338.03  1435.39  1468.91
                             1481.90  1486.17  1500.02  1511.97  1521.08
                             1586.02  1607.81  1661.88  1737.25  1755.66
                             1807.72  1816.09  1945.84  1956.22  1983.17
                             2009.80  2016.41  2025.46  2086.54  2107.86
                             2115.14  2129.45  2130.22  2143.07  2151.63
                             2155.81  2158.33  2167.32  2177.43  2185.63
                             2218.67  2315.27  2355.71  4303.59  4308.46
                             4328.25  4331.37  4353.61  4359.76  4376.25
                             4380.80  4439.21  4461.38  4469.71  4474.31
                             4542.31  4555.66

 Zero-point correction=                           0.239047 (Hartree/Particle)
 Thermal correction to Energy=                    0.253016
 Thermal correction to Enthalpy=                  0.253960
 Thermal correction to Gibbs Free Energy=         0.198240
 Sum of electronic and zero-point Energies=           -692.396067
 Sum of electronic and thermal Energies=              -692.382098
 Sum of electronic and thermal Enthalpies=            -692.381154
 Sum of electronic and thermal Free Energies=         -692.436873

                     E (Thermal)             CV                S
                      KCal/Mol        Cal/Mol-Kelvin    Cal/Mol-Kelvin
 Total                  158.770             54.603            117.272
 Electronic               0.000              0.000              1.377
 Translational            0.889              2.981             41.987
 Rotational               0.889              2.981             32.431
 Vibrational            156.992             48.641             41.476
 Vibration     1          0.597              1.972              4.372
 Vibration     2          0.599              1.966              4.021
 Vibration     3          0.607              1.939              3.226
 Vibration     4          0.614              1.917              2.858
 Vibration     5          0.617              1.907              2.719
 Vibration     6          0.630              1.866              2.321
 Vibration     7          0.631              1.861              2.285
 Vibration     8          0.651              1.798              1.894
 Vibration     9          0.657              1.781              1.809
 Vibration    10          0.694              1.670              1.407
 Vibration    11          0.705              1.638              1.316
 Vibration    12          0.715              1.610              1.246
 Vibration    13          0.730              1.568              1.150
 Vibration    14          0.734              1.556              1.125
 Vibration    15          0.740              1.540              1.092
 Vibration    16          0.782              1.428              0.893
 Vibration    17          0.788              1.412              0.869
 Vibration    18          0.810              1.357              0.791
 Vibration    19          0.824              1.323              0.746
 Vibration    20          0.863              1.232              0.638
 Vibration    21          0.923              1.101              0.509
 Vibration    22          0.932              1.084              0.493

 Optimization completed.
    -- Stationary point found.
 Normal termination of Gaussian 16 at Tue Dec 26 21:55:56 2023.
