 Q-Chem 5.4, Q-Chem, Inc., Pleasanton, CA (2021)
 Q-Chem 5.4.0 for Intel X86 EM64T Linux

User input:
--------------------------------------------------------------
$molecule
-2 1
C                 -4.1102810000      3.6387890000      1.5167450000
C                 -4.5980500000      3.8713550000      0.2513880000
C                 -3.9968500000      3.2207730000     -0.8490910000
C                 -2.9310560000      2.3469420000     -0.6608500000
C                 -2.3768640000      2.0879400000      0.6288690000
C                 -3.0199700000      2.7641160000      1.7450630000
C                 -2.5919540000      2.5794190000      3.1292530000
C                 -1.5027590000      1.6837470000      3.2854770000
C                 -0.9012130000      1.0494370000      2.1992430000
C                 -1.2220610000      1.1828570000      0.8150000000
O                 -3.1658640000      3.1738050000      4.1200340000
O                 -0.5960500000      0.6062680000     -0.1274830000
H                 -4.5332570000      4.1134980000      2.3955700000
H                 -4.3568230000      3.4039010000     -1.8627790000
O                 -2.4073980000      1.7251270000     -1.7810010000
Br                 0.6181970000     -0.1472500000      2.6123510000
H                 -5.4340010000      4.5486820000      0.0870560000
H                 -1.1472430000      1.4977860000      4.2931570000
H                 -3.0083730000      1.9408700000     -2.5042020000
$end
$rem
MAX_SCF_CYCLES=200
BASIS  =  6-311++G(d,p)
GUI  =  2
JOB_TYPE  =  SP
METHOD  =  B3LYP
SOLVENT_METHOD = COSMO
$end
$solvent
dielectric 37.219
opticaldielectric 1.43
$end

--------------------------------------------------------------

             Standard Nuclear Orientation (Angstroms)
    I     Atom           X                Y                Z
 ----------------------------------------------------------------
    1      C       2.8461739418    -1.3512254013    -0.0130484769
    2      C       3.8549352899    -0.4155302896    -0.0100352012
    3      C       3.5213237360     0.9572037272    -0.0024814962
    4      C       2.1911524244     1.3638588645     0.0119414796
    5      C       1.1095172587     0.4326488857    -0.0104024542
    6      C       1.4810175517    -0.9740049518    -0.0094699293
    7      C       0.4923128266    -2.0490185039     0.0006029743
    8      C      -0.8534513110    -1.5998789084     0.0137379471
    9      C      -1.1843722585    -0.2454090529     0.0100222788
   10      C      -0.3015503374     0.8753085054    -0.0285863808
   11      O       0.8211256528    -3.2964736133     0.0078328168
   12      O      -0.6786635893     2.0869197095    -0.0776041109
   13      H       3.0465849701    -2.4172296454    -0.0208640468
   14      H       4.3053298264     1.7160185261    -0.0171217777
   15      O       1.9378179186     2.7241412043     0.0445519389
   16      Br     -3.1142257009     0.1870076370     0.0075241361
   17      H       4.9008050563    -0.7166963531    -0.0168454457
   18      H      -1.6332587499    -2.3534903859     0.0327695353
   19      H       2.7938438384     3.1457149080     0.1867873640
 ----------------------------------------------------------------

   37   -3184.0233667150      8.21e-06  Convergence criterion met
 Total energy in the final basis set =    -3184.0233667150
    6   -3184.3163696000      3.75e-06  Convergence criterion met
 Total energy in the final basis set =    -3184.3163696000

                    Orbital Energies (a.u.)
 --------------------------------------------------------------

 Alpha MOs
 -- Occupied --
******** -62.4557 -56.2758 -56.2726 -56.2724 -19.1366 -19.0275 -19.0274
-10.2222 -10.1946 -10.1822 -10.1802 -10.1591 -10.1564 -10.1522 -10.1502
-10.1441 -10.1336  -8.6643  -6.4943  -6.4838  -6.4832  -2.6055  -2.6025
 -2.6022  -2.5937  -2.5937  -1.0462  -0.9542  -0.9437  -0.8314  -0.7959
 -0.7513  -0.7237  -0.7032  -0.6492  -0.6073  -0.5807  -0.5491  -0.5015
 -0.4839  -0.4564  -0.4446  -0.4288  -0.4090  -0.4041  -0.3816  -0.3727
 -0.3693  -0.3642  -0.3480  -0.3377  -0.3303  -0.3255  -0.3102  -0.2895
 -0.2710  -0.2368  -0.2211  -0.2148  -0.2097  -0.2041  -0.1226

          Ground-State Mulliken Net Atomic Charges

     Atom                 Charge (a.u.)
  ----------------------------------------
      1 C                     0.045584
      2 C                    -0.474236
      3 C                    -0.242911
      4 C                    -0.008897
      5 C                     0.168388
      6 C                     0.245423
      7 C                    -0.623721
      8 C                    -0.125759
      9 C                     0.596754
     10 C                    -0.633812
     11 O                    -0.733216
     12 O                    -0.641426
     13 H                     0.152348
     14 H                     0.167018
     15 O                    -0.265793
     16 Br                   -0.308768
     17 H                     0.195151
     18 H                     0.184224
     19 H                     0.303648
  ----------------------------------------
  Sum of atomic charges =    -2.000000

                    Cartesian Multipole Moments
 -----------------------------------------------------------------
    Charge (ESU x 10^10)
                -9.6064
    Dipole Moment (Debye)
         X       3.1315      Y       5.3121      Z       0.4488
       Tot       6.1827
    Quadrupole Moments (Debye-Ang)
        XX    -113.0750     XY      22.2013     YY    -157.1151
        XZ       0.5842     YZ       1.6147     ZZ    -103.9290

 Total job time:  86.23s(wall), 664.54s(cpu)
        *  Thank you very much for using Q-Chem.  Have a nice day.  *
