 Q-Chem 5.4, Q-Chem, Inc., Pleasanton, CA (2021)
 Q-Chem 5.4.0 for Intel X86 EM64T Linux

User input:
--------------------------------------------------------------
$molecule
0 1
C                 -2.8015860000     -0.8789960000     -0.9628520000
C                 -1.4595160000     -0.4044230000     -0.4667320000
C                 -0.3060010000     -1.1246120000     -0.7752970000
C                  0.9517980000     -0.7139370000     -0.3325000000
C                  2.1606930000     -1.5098330000     -0.6829430000
O                  2.1054510000     -2.5281750000     -1.3545890000
C                  3.4665200000     -1.0144760000     -0.1780400000
C                  3.5710830000      0.0978800000      0.5615740000
C                  2.3888360000      0.9172690000      0.9308860000
O                  2.5240440000      1.9252650000      1.6067900000
C                  1.0613780000      0.4516450000      0.4422990000
C                 -0.0896960000      1.1760360000      0.7538510000
C                 -1.3490730000      0.7701220000      0.3137620000
C                 -2.5704350000      1.5787020000      0.6700530000
H                 -2.7026390000     -1.7957170000     -1.5453000000
H                 -3.4869070000     -1.0783130000     -0.1326240000
H                 -3.2824270000     -0.1264270000     -1.5961970000
H                 -0.3677300000     -2.0274890000     -1.3721370000
H                  4.3292710000     -1.6138620000     -0.4484880000
H                  4.5242850000      0.4607740000      0.9309770000
H                  0.0177490000      2.0729400000      1.3532210000
H                 -3.2928280000      0.9827700000      1.2372280000
H                 -2.3034630000      2.4474000000      1.2729500000
H                 -3.0888070000      1.9354580000     -0.2258930000
$end
$rem
MAX_SCF_CYCLES=200
BASIS  =  6-311++G(d,p)
GUI  =  2
JOB_TYPE  =  SP
METHOD  =  B3LYP
SOLVENT_METHOD = COSMO
$end
$solvent
dielectric 37.219
opticaldielectric 1.43
$end

--------------------------------------------------------------

             Standard Nuclear Orientation (Angstroms)
    I     Atom           X                Y                Z
 ----------------------------------------------------------------
    1      C       3.3054954033    -1.4798748728    -0.0003615015
    2      C       2.0110387305    -0.7072893662    -0.0001911469
    3      C       0.7926209996    -1.3854778674    -0.0001982691
    4      C      -0.4237556839    -0.7019508283    -0.0000811994
    5      C      -1.7045135528    -1.4617844272     0.0001269666
    6      O      -1.7449048127    -2.6822552137     0.0003764123
    7      C      -2.9608766186    -0.6699248482     0.0000564158
    8      C      -2.9608648349     0.6699625163    -0.0000479486
    9      C      -1.7044816172     1.4617951121    -0.0001269215
   10      O      -1.7448351214     2.6822683541    -0.0002559638
   11      C      -0.4237458029     0.7019375795    -0.0000180706
   12      C       0.7926356412     1.3854538548     0.0000652977
   13      C       2.0110427174     0.7072509889     0.0000936718
   14      C       3.3054654175     1.4798697649     0.0004517917
   15      H       3.1207219925    -2.5547103912    -0.0013456517
   16      H       3.9135838118    -1.2406169048    -0.8788003347
   17      H       3.9128444781    -1.2421681340     0.8790227511
   18      H       0.7695077095    -2.4693049245    -0.0003335303
   19      H      -3.8778629112    -1.2494773660     0.0001199008
   20      H      -3.8778376082     1.2495361658    -0.0000949903
   21      H       0.7695750377     2.4692867801     0.0001581338
   22      H       3.9133057557     1.2417658436    -0.8784740991
   23      H       3.1206164549     2.5546840678     0.0008151652
   24      H       3.9130999563     1.2410941024     0.8793545503
 ----------------------------------------------------------------

    9    -613.9153760284      2.24e-06  Convergence criterion met
 Total energy in the final basis set =     -613.9153760284
    5    -613.9302004491      2.72e-06  Convergence criterion met
 Total energy in the final basis set =     -613.9302004491

                    Orbital Energies (a.u.)
 --------------------------------------------------------------

 Alpha MOs
 -- Occupied --
-19.1375 -19.1375 -10.2851 -10.2851 -10.2101 -10.2093 -10.2037 -10.2033
-10.2032 -10.2028 -10.1918 -10.1918 -10.1701 -10.1701  -1.0705  -1.0688
 -0.8915  -0.8440  -0.7954  -0.7864  -0.7266  -0.7018  -0.6884  -0.6278
 -0.6188  -0.5904  -0.5317  -0.5158  -0.5127  -0.4732  -0.4633  -0.4607
 -0.4555  -0.4483  -0.4384  -0.4228  -0.4213  -0.4204  -0.4049  -0.3937
 -0.3932  -0.3660  -0.3629  -0.3576  -0.3094  -0.2910  -0.2790  -0.2719
 -0.2640

          Ground-State Mulliken Net Atomic Charges

     Atom                 Charge (a.u.)
  ----------------------------------------
      1 C                    -0.516341
      2 C                     0.595446
      3 C                    -0.188879
      4 C                     0.018865
      5 C                    -0.678754
      6 O                    -0.311031
      7 C                     0.125867
      8 C                     0.125664
      9 C                    -0.678032
     10 O                    -0.311115
     11 C                     0.019378
     12 C                    -0.189208
     13 C                     0.594902
     14 C                    -0.515872
     15 H                     0.187584
     16 H                     0.178324
     17 H                     0.178505
     18 H                     0.156157
     19 H                     0.253951
     20 H                     0.253922
     21 H                     0.156287
     22 H                     0.178401
     23 H                     0.187659
     24 H                     0.178319
  ----------------------------------------
  Sum of atomic charges =     0.000000

                    Cartesian Multipole Moments
 -----------------------------------------------------------------
    Charge (ESU x 10^10)
                 0.0000
    Dipole Moment (Debye)
         X       3.6012      Y       0.0007      Z      -0.0005
       Tot       3.6012
    Quadrupole Moments (Debye-Ang)
        XX     -62.5292     XY      -0.0017     YY    -100.5192
        XZ       0.0011     YZ       0.0046     ZZ     -82.5925

 Total job time:  93.41s(wall), 254.32s(cpu)
        *  Thank you very much for using Q-Chem.  Have a nice day.  *
