 Q-Chem 5.4, Q-Chem, Inc., Pleasanton, CA (2021)
 Q-Chem 5.4.0 for Intel X86 EM64T Linux

User input:
--------------------------------------------------------------
$molecule
-2 1
C                  5.0229910000     -2.5449720000      0.1386800000
C                  5.7627670000     -1.5981510000     -0.5434290000
C                  5.0906870000     -0.5629320000     -1.2437550000
C                  3.6094130000     -2.5182820000      0.1635680000
C                  2.9243350000     -1.4679070000     -0.5462600000
C                  3.7118520000     -0.5112930000     -1.2369930000
C                  2.8956630000     -3.5543070000      0.9037000000
C                  1.4469790000     -3.4293410000      0.8612410000
C                  0.7683720000     -2.3511260000      0.1396750000
C                  1.4704790000     -1.3402560000     -0.5854320000
C                  0.6762110000     -4.3708980000      1.5518380000
C                 -0.6584850000     -2.3312650000      0.1790370000
C                 -1.4050640000     -3.2564330000      0.8578420000
O                  3.5022690000     -4.4775220000      1.5339740000
O                  0.8953680000     -0.3852880000     -1.2266570000
H                  5.5017680000     -3.3516060000      0.6850820000
H                 -2.4877620000     -3.2263230000      0.8621710000
H                  3.1669250000      0.2669520000     -1.7617930000
H                  1.2042100000     -5.1570560000      2.0798430000
H                 -1.1398730000     -1.5295260000     -0.3720370000
C                 -0.7170880000     -4.3139150000      1.5537080000
H                  5.6636630000      0.1881520000     -1.7850280000
H                  6.8499280000     -1.6444580000     -0.5447810000
S                 -1.6123430000     -5.4006080000      2.5674030000
O                 -0.8317930000     -6.6140800000      2.8927680000
O                 -3.0029630000     -5.5889400000      2.1066840000
N                 -1.8337590000     -4.5102500000      4.0633200000
H                 -0.9085230000     -4.3712240000      4.4656310000
H                 -2.3645860000     -5.1189920000      4.6888200000
$end
$rem
MAX_SCF_CYCLES=200
BASIS  =  6-311++G(d,p)
GUI  =  2
JOB_TYPE  =  SP
METHOD  =  B3LYP
SOLVENT_METHOD = COSMO
$end
$solvent
dielectric 37.219
opticaldielectric 1.43
$end

--------------------------------------------------------------

             Standard Nuclear Orientation (Angstroms)
    I     Atom           X                Y                Z
 ----------------------------------------------------------------
    1      C       3.6411114339    -1.7664242194     0.0133636767
    2      C       4.9609995926    -1.3632089237     0.0791200298
    3      C       5.2635339741     0.0227247265     0.1176852449
    4      C       2.5735103548    -0.8396879220    -0.0170057463
    5      C       2.8777643390     0.5682674583     0.0225727369
    6      C       4.2423235704     0.9502166138     0.0896428049
    7      C       1.2043931366    -1.3405426121    -0.0894271719
    8      C       0.1876062909    -0.3005567500    -0.1154755290
    9      C       0.5155763582     1.1255922262    -0.0680701334
   10      C       1.8570046076     1.6118620598     0.0005189207
   11      C      -1.1567252068    -0.6840004305    -0.1727544820
   12      C      -0.5716052450     2.0504396663    -0.0916942578
   13      C      -1.8844768426     1.6665521395    -0.1472891713
   14      O       0.9376516596    -2.5837321819    -0.1189359591
   15      O       2.1680225754     2.8590313951     0.0420221343
   16      H       3.3710778281    -2.8173880577    -0.0182248278
   17      H      -2.6911343097     2.3887821873    -0.1764061837
   18      H       4.4390028587     2.0172370262     0.1181112515
   19      H      -1.3715146470    -1.7463043169    -0.2042596306
   20      H      -0.3040044185     3.1020943640    -0.0669035638
   21      C      -2.1841580504     0.2583644699    -0.2021280954
   22      H       6.3001368575     0.3516936519     0.1690568363
   23      H       5.7617205449    -2.0997087967     0.1010083777
   24      S      -3.8317593515    -0.2747220979    -0.0963480960
   25      O      -3.9820148123    -1.6790192824    -0.5356745061
   26      O      -4.7832569004     0.7146381197    -0.6416679085
   27      N      -4.1901409355    -0.2277555411     1.6208842316
   28      H      -3.5908082942    -0.9191490737     2.0681195089
   29      H      -5.1597103070    -0.5323500488     1.7245751009
 ----------------------------------------------------------------

   11   -1292.9803683231      7.47e-06  Convergence criterion met
 Total energy in the final basis set =    -1292.9803683231
    6   -1293.2442432779      4.75e-06  Convergence criterion met
 Total energy in the final basis set =    -1293.2442432779

                    Orbital Energies (a.u.)
 --------------------------------------------------------------

 Alpha MOs
 -- Occupied --
-89.0641 -19.1192 -19.1190 -19.0462 -19.0309 -14.3302 -10.2010 -10.1935
-10.1855 -10.1799 -10.1670 -10.1603 -10.1590 -10.1582 -10.1569 -10.1544
-10.1542 -10.1537 -10.1529 -10.1464  -8.1259  -6.0887  -6.0884  -6.0866
 -1.1154  -1.0061  -0.9688  -0.9498  -0.8910  -0.8493  -0.8362  -0.7768
 -0.7499  -0.7337  -0.7314  -0.6776  -0.6451  -0.6152  -0.5935  -0.5724
 -0.5447  -0.5335  -0.5177  -0.5076  -0.4976  -0.4744  -0.4636  -0.4496
 -0.4467  -0.4376  -0.4205  -0.4084  -0.3995  -0.3965  -0.3899  -0.3859
 -0.3721  -0.3614  -0.3562  -0.3475  -0.3444  -0.3355  -0.3297  -0.3226
 -0.3186  -0.3141  -0.3099  -0.2819  -0.2534  -0.2433  -0.2388  -0.2320
 -0.2228  -0.2103  -0.1231

          Ground-State Mulliken Net Atomic Charges

     Atom                 Charge (a.u.)
  ----------------------------------------
      1 C                     0.039528
      2 C                    -0.523738
      3 C                    -0.508530
      4 C                     0.282534
      5 C                     0.295851
      6 C                     0.026371
      7 C                    -0.587490
      8 C                     0.141949
      9 C                     0.529019
     10 C                    -0.306481
     11 C                    -0.139637
     12 C                    -0.208464
     13 C                    -0.413051
     14 O                    -0.609906
     15 O                    -0.687025
     16 H                     0.164758
     17 H                     0.244979
     18 H                     0.165288
     19 H                     0.216206
     20 H                     0.160106
     21 C                    -0.315712
     22 H                     0.189936
     23 H                     0.189090
     24 S                     0.225244
     25 O                    -0.329239
     26 O                    -0.373647
     27 N                    -0.512994
     28 H                     0.309290
     29 H                     0.335760
  ----------------------------------------
  Sum of atomic charges =    -2.000005

                    Cartesian Multipole Moments
 -----------------------------------------------------------------
    Charge (ESU x 10^10)
                -9.6064
    Dipole Moment (Debye)
         X      -3.4548      Y      -2.7573      Z       3.9370
       Tot       5.9193
    Quadrupole Moments (Debye-Ang)
        XX    -198.3542     XY     -10.4444     YY    -184.3307
        XZ     -16.9527     YZ      -6.6367     ZZ    -133.3001

 Total job time:  93.54s(wall), 727.15s(cpu)
        *  Thank you very much for using Q-Chem.  Have a nice day.  *
