 Q-Chem 5.4, Q-Chem, Inc., Pleasanton, CA (2021)
 Q-Chem 5.4.0 for Intel X86 EM64T Linux

User input:
--------------------------------------------------------------
$molecule
0 1
C                 -0.9066440000      3.8561250000     -0.0210390000
C                 -2.0215790000      3.1002540000      0.3323100000
C                 -1.9070250000      1.7187460000      0.4918130000
C                  0.3249790000      3.2279440000     -0.2126340000
C                  0.4407490000      1.8402370000     -0.0512010000
C                 -0.6791700000      1.0878590000      0.2986620000
C                  1.5132420000      4.0278520000     -0.5905380000
C                  2.8303180000      3.3275220000     -0.8051310000
C                  2.9305070000      1.9729320000     -0.5767430000
C                  1.7532480000      1.1641520000     -0.2544870000
O                  1.4616140000      5.2377780000     -0.7428320000
O                  1.8498670000     -0.0615920000     -0.1694170000
N                  3.8102100000      4.1400840000     -1.2483650000
H                 -0.9723630000      4.9289390000     -0.1533540000
H                 -2.9783990000      3.5866950000      0.4828440000
H                 -2.7760420000      1.1319390000      0.7669440000
H                 -0.5702880000      0.0170050000      0.4159550000
H                  3.5794030000      5.1253750000     -1.2456150000
H                  4.7732870000      3.8505230000     -1.0768530000
N                  4.0745660000      1.1674340000     -0.7536780000
H                  3.8126980000      0.1857930000     -0.7705310000
C                  5.4079190000      1.4431400000     -0.6217090000
C                  6.3237720000      0.2448530000     -0.8372220000
C                  7.5351920000      0.2595960000      0.0982610000
O                  5.8597880000      2.5587540000     -0.3782340000
H                  6.6599630000      0.2959050000     -1.8798470000
H                  5.7644570000     -0.6899830000     -0.7370680000
H                  8.0788590000      1.2003180000      0.0053990000
H                  8.2127860000     -0.5618330000     -0.1452410000
H                  7.2290160000      0.1492750000      1.1416330000
$end
$rem
MAX_SCF_CYCLES=200
BASIS  =  6-311++G(d,p)
GUI  =  2
JOB_TYPE  =  SP
METHOD  =  B3LYP
SOLVENT_METHOD = COSMO
$end
$solvent
dielectric 37.219
opticaldielectric 1.43
$end

--------------------------------------------------------------

             Standard Nuclear Orientation (Angstroms)
    I     Atom           X                Y                Z
 ----------------------------------------------------------------
    1      C       3.6502283368    -0.7673650793     0.1992053749
    2      C       4.5717781478     0.2736966663     0.2780274928
    3      C       4.1375308948     1.5979327081     0.2076257264
    4      C       2.2919221132    -0.4817966440     0.0519977026
    5      C       1.8551406294     0.8484639423    -0.0174481899
    6      C       2.7820914423     1.8866207551     0.0579703936
    7      C       1.3082829504    -1.5861712175    -0.0342809027
    8      C      -0.1519510044    -1.2554469671    -0.2061521386
    9      C      -0.5604848506     0.0599286669    -0.2062944639
   10      C       0.4060910155     1.1593102656    -0.1746090304
   11      O       1.6405398937    -2.7593435270     0.0209630474
   12      O       0.0213302029     2.3242132867    -0.2928484402
   13      N      -0.9360311766    -2.3380968090    -0.3793263797
   14      H       3.9643250311    -1.8025830227     0.2484313953
   15      H       5.6267613170     0.0536849963     0.3937652219
   16      H       4.8563651056     2.4070783308     0.2691952595
   17      H       2.4255809877     2.9073256303    -0.0003655358
   18      H      -0.4732079580    -3.2261031179    -0.2333220913
   19      H      -1.9245314596    -2.2437549993    -0.1453476199
   20      N      -1.8760810853     0.5372382784    -0.3806105549
   21      H      -1.8626859325     1.5294088475    -0.5994622346
   22      C      -3.0883082719     0.0013238256    -0.0421422618
   23      C      -4.2816359963     0.8970123084    -0.3500958120
   24      C      -5.3777615279     0.7962048507     0.7134975742
   25      O      -3.2355021214    -1.1165202844     0.4444980388
   26      H      -4.6742644789     0.5669659698    -1.3194305709
   27      H      -3.9602673273     1.9343033731    -0.4825037638
   28      H      -5.6820093291    -0.2417553193     0.8521590329
   29      H      -6.2512649104     1.3801261396     0.4148335088
   30      H      -5.0285022894     1.1762325960     1.6768959827
 ----------------------------------------------------------------

    9    -838.0638403421      6.16e-06  Convergence criterion met
 Total energy in the final basis set =     -838.0638403421
    5    -838.0818973325      3.57e-06  Convergence criterion met
 Total energy in the final basis set =     -838.0818973325

                    Orbital Energies (a.u.)
 --------------------------------------------------------------

 Alpha MOs
 -- Occupied --
-19.1442 -19.1288 -19.1155 -14.3660 -14.3371 -10.2965 -10.2935 -10.2813
-10.2534 -10.2354 -10.2092 -10.2085 -10.1983 -10.1970 -10.1959 -10.1953
-10.1833 -10.1618  -1.0808  -1.0698  -1.0615  -0.9613  -0.9370  -0.8903
 -0.8209  -0.7872  -0.7788  -0.7601  -0.7060  -0.6713  -0.6493  -0.6320
 -0.6112  -0.5923  -0.5659  -0.5427  -0.5380  -0.5132  -0.5094  -0.4856
 -0.4779  -0.4715  -0.4625  -0.4591  -0.4532  -0.4510  -0.4430  -0.4340
 -0.4260  -0.4178  -0.3898  -0.3840  -0.3760  -0.3710  -0.3694  -0.3620
 -0.3500  -0.3226  -0.3014  -0.2882  -0.2864  -0.2850  -0.2788  -0.2248

          Ground-State Mulliken Net Atomic Charges

     Atom                 Charge (a.u.)
  ----------------------------------------
      1 C                     0.220319
      2 C                    -0.344954
      3 C                    -0.378983
      4 C                     0.442280
      5 C                    -0.063257
      6 C                     0.178692
      7 C                    -0.570048
      8 C                     0.435152
      9 C                     0.476433
     10 C                    -0.922670
     11 O                    -0.302405
     12 O                    -0.333686
     13 N                    -0.430285
     14 H                     0.202771
     15 H                     0.223863
     16 H                     0.227881
     17 H                     0.200441
     18 H                     0.328946
     19 H                     0.335616
     20 N                    -0.039124
     21 H                     0.390381
     22 C                     0.204691
     23 C                    -0.321046
     24 C                    -0.587710
     25 O                    -0.429241
     26 H                     0.209684
     27 H                     0.148283
     28 H                     0.172819
     29 H                     0.165413
     30 H                     0.159742
  ----------------------------------------
  Sum of atomic charges =     0.000001

                    Cartesian Multipole Moments
 -----------------------------------------------------------------
    Charge (ESU x 10^10)
                -0.0000
    Dipole Moment (Debye)
         X       1.6602      Y       2.1797      Z      -0.7830
       Tot       2.8497
    Quadrupole Moments (Debye-Ang)
        XX     -81.0204     XY      -0.8314     YY    -111.5735
        XZ       6.7024     YZ       1.2251     ZZ    -107.7803

 Total job time:  63.20s(wall), 414.62s(cpu)
        *  Thank you very much for using Q-Chem.  Have a nice day.  *
