 Gaussian 16, Revision A.03,
 Gaussian 16:  ES64L-G16RevA.03 25-Dec-2016

 --------------------------------------
 #P UB3LYP/6-311++G(d,p) nosym opt freq
 --------------------------------------

 -------
 Reduced
 -------
 Symbolic Z-matrix:
 Charge = -2 Multiplicity = 1

 SCF Done:  E(UB3LYP) =  -1608.11862975     A.U. after   33 cycles
 SCF Done:  E(UB3LYP) =  -1608.15590339     A.U. after   24 cycles
 SCF Done:  E(UB3LYP) =  -1608.16561106     A.U. after   18 cycles
 SCF Done:  E(UB3LYP) =  -1608.16700249     A.U. after   16 cycles
 SCF Done:  E(UB3LYP) =  -1608.16709783     A.U. after   15 cycles
 SCF Done:  E(UB3LYP) =  -1608.16710998     A.U. after   13 cycles
 SCF Done:  E(UB3LYP) =  -1608.16711099     A.U. after   12 cycles
 Optimization completed.
    -- Stationary point found.
 Normal termination of Gaussian 16 at Thu Dec 21 06:26:30 2023.

 ----------------------------------------------------------------------
 #P Geom=AllCheck Guess=TCheck SCRF=Check GenChk UB3LYP/6-311++G(d,p) F
 req
 ----------------------------------------------------------------------

 Structure from the checkpoint file:  "121-an.chk"
 -------
 Reduced
 -------
 Charge = -2 Multiplicity = 1

                          Input orientation:
 ---------------------------------------------------------------------
 Center     Atomic      Atomic             Coordinates (Angstroms)
 Number     Number       Type             X           Y           Z
 ---------------------------------------------------------------------
      1         17           0        2.652014    3.207061   -0.522491
      2          6           0        2.474884    1.443434   -0.206858
      3          6           0        3.679212    0.792139   -0.062148
      4          6           0        3.692826   -0.604552    0.191329
      5          6           0        2.498358   -1.277817    0.287004
      6          6           0        1.245750   -0.633202    0.142429
      7          6           0        0.072493   -1.485549    0.271015
      8          8           0        0.195992   -2.738639    0.500948
      9          6           0       -1.197873   -0.807789    0.119926
     10          6           0       -2.474717   -1.443381    0.206846
     11         17           0       -2.650937   -3.207151    0.522508
     12          6           0       -3.679150   -0.792293    0.062165
     13          6           0       -3.692954    0.604430   -0.191314
     14          6           0       -2.498556    1.277853   -0.287007
     15          6           0       -1.245839    0.633420   -0.142457
     16          6           0       -0.072667    1.485742   -0.271030
     17          8           0       -0.196455    2.738766   -0.500970
     18          6           0        1.197930    0.807981   -0.119949
     19          1           0        4.602505    1.354721   -0.143655
     20          1           0        4.642036   -1.123394    0.306357
     21          1           0        2.454363   -2.344382    0.479379
     22          1           0       -4.602356   -1.355013    0.143687
     23          1           0       -4.642210    1.123184   -0.306332
     24          1           0       -2.454650    2.344430   -0.479381
 ---------------------------------------------------------------------

 SCF Done:  E(UB3LYP) =  -1608.16711099     A.U. after    2 cycles

 Alpha  occ. eigenvalues -- -101.30550-101.30546 -18.77607 -18.77605  -9.99045
 Alpha  occ. eigenvalues --   -9.99043  -9.94637  -9.94635  -9.93640  -9.93640
 Alpha  occ. eigenvalues --   -9.93367  -9.93367  -9.92343  -9.92339  -9.92185
 Alpha  occ. eigenvalues --   -9.92185  -9.91199  -9.91197  -9.22004  -9.21999
 Alpha  occ. eigenvalues --   -6.98429  -6.98424  -6.97538  -6.97534  -6.97446
 Alpha  occ. eigenvalues --   -6.97441  -0.70298  -0.69856  -0.63269  -0.63141
 Alpha  occ. eigenvalues --   -0.58403  -0.57736  -0.52988  -0.48974  -0.48645
 Alpha  occ. eigenvalues --   -0.48368  -0.41163  -0.38719  -0.37489  -0.32798
 Alpha  occ. eigenvalues --   -0.29487  -0.29251  -0.27278  -0.23141  -0.21858
 Alpha  occ. eigenvalues --   -0.21385  -0.20944  -0.18200  -0.18063  -0.16522
 Alpha  occ. eigenvalues --   -0.16081  -0.14623  -0.14311  -0.14248  -0.11755
 Alpha  occ. eigenvalues --   -0.10778  -0.10374  -0.10079  -0.09774  -0.08318
 Alpha  occ. eigenvalues --   -0.07295  -0.07069  -0.06869  -0.06558  -0.00422
 Alpha  occ. eigenvalues --    0.00414   0.00526   0.01256   0.04421   0.05143
 Alpha  occ. eigenvalues --    0.12981
 Alpha virt. eigenvalues --    0.16296   0.16334   0.18226   0.18304   0.19406
 Alpha virt. eigenvalues --    0.20547   0.21381   0.21483   0.21689   0.22406
 Alpha virt. eigenvalues --    0.23169   0.24989   0.25872   0.26029   0.26059

  Beta  occ. eigenvalues -- -101.30550-101.30546 -18.77607 -18.77605  -9.99045
  Beta  occ. eigenvalues --   -9.99043  -9.94637  -9.94635  -9.93640  -9.93640
  Beta  occ. eigenvalues --   -9.93367  -9.93367  -9.92343  -9.92339  -9.92185
  Beta  occ. eigenvalues --   -9.92185  -9.91199  -9.91197  -9.22004  -9.21999
  Beta  occ. eigenvalues --   -6.98429  -6.98424  -6.97538  -6.97534  -6.97446
  Beta  occ. eigenvalues --   -6.97441  -0.70298  -0.69856  -0.63269  -0.63141
  Beta  occ. eigenvalues --   -0.58403  -0.57736  -0.52988  -0.48974  -0.48645
  Beta  occ. eigenvalues --   -0.48368  -0.41163  -0.38719  -0.37489  -0.32798
  Beta  occ. eigenvalues --   -0.29487  -0.29251  -0.27278  -0.23141  -0.21858
  Beta  occ. eigenvalues --   -0.21385  -0.20944  -0.18200  -0.18063  -0.16522
  Beta  occ. eigenvalues --   -0.16081  -0.14623  -0.14311  -0.14248  -0.11755
  Beta  occ. eigenvalues --   -0.10778  -0.10374  -0.10079  -0.09774  -0.08318
  Beta  occ. eigenvalues --   -0.07295  -0.07069  -0.06869  -0.06558  -0.00422
  Beta  occ. eigenvalues --    0.00414   0.00526   0.01256   0.04421   0.05143
  Beta  occ. eigenvalues --    0.12981
  Beta virt. eigenvalues --    0.16296   0.16334   0.18226   0.18304   0.19406
  Beta virt. eigenvalues --    0.20547   0.21381   0.21483   0.21689   0.22406
  Beta virt. eigenvalues --    0.23169   0.24989   0.25872   0.26029   0.26059

 Mulliken charges and spin densities:
               1          2
     1  Cl   0.283852   0.000000
     2  C    0.990300   0.000000
     3  C   -0.324094  -0.000000
     4  C   -0.650897  -0.000000
     5  C    0.433114   0.000000
     6  C    0.403155   0.000000
     7  C   -2.063576  -0.000000
     8  O   -0.379151   0.000000
     9  C   -0.018913  -0.000000
    10  C    0.990264   0.000000
    11  Cl   0.283612  -0.000000
    12  C   -0.324118  -0.000000
    13  C   -0.650559  -0.000000
    14  C    0.432929   0.000000
    15  C    0.402499   0.000000
    16  C   -2.063287  -0.000000
    17  O   -0.379284   0.000000
    18  C   -0.018322   0.000000
    19  H    0.098754  -0.000000
    20  H    0.077010   0.000000
    21  H    0.150516   0.000000
    22  H    0.098685  -0.000000
    23  H    0.077019  -0.000000
    24  H    0.150492   0.000000
 Sum of Mulliken charges =  -2.00000  -0.00000

 Dipole moment (field-independent basis, Debye):
    X=              0.0015    Y=             -0.0002    Z=              0.0000  Tot=              0.0015
 Quadrupole moment (field-independent basis, Debye-Ang):
   XX=           -172.8040   YY=           -191.5629   ZZ=           -131.7710
   XY=            -15.7876   XZ=              1.9096   YZ=             10.8398

  Exact polarizability: 433.695  24.288 285.421   2.300 -27.527 135.628
 Approx polarizability: 781.182   1.822 527.588  12.617 -60.065 207.243

                      1                      2                      3
                      A                      A                      A
 Frequencies --     15.0558                44.9294                50.2111
 Red. masses --     16.9428                13.7862                 6.5937
 Frc consts  --      0.0023                 0.0164                 0.0098
 IR Inten    --      3.4780                 0.0001                 4.4773

                      4                      5                      6
                      A                      A                      A
 Frequencies --    156.1260               158.9096               193.8792
 Red. masses --      6.9675                12.1505                23.2818
 Frc consts  --      0.1001                 0.1808                 0.5156
 IR Inten    --      2.6891                 6.9405                 0.0000

                      7                      8                      9
                      A                      A                      A
 Frequencies --    198.0781               206.8026               260.6319
 Red. masses --      4.5805                 5.2655                 5.8025
 Frc consts  --      0.1059                 0.1327                 0.2322
 IR Inten    --      0.0000                 0.1236                 0.0000

                     10                     11                     12
                      A                      A                      A
 Frequencies --    316.4900               321.3676               359.5912
 Red. masses --     12.5572                17.1954                 6.2337
 Frc consts  --      0.7411                 1.0463                 0.4749
 IR Inten    --      0.6095                 0.0000                 0.0000

                     13                     14                     15
                      A                      A                      A
 Frequencies --    376.5653               380.4693               405.8200
 Red. masses --      7.7321                13.0632                 7.8377
 Frc consts  --      0.6460                 1.1141                 0.7605
 IR Inten    --      0.0000                 7.8718                22.2161

                     16                     17                     18
                      A                      A                      A
 Frequencies --    414.6394               478.4379               484.3274
 Red. masses --      8.4070                 9.0313                 4.2222
 Frc consts  --      0.8516                 1.2180                 0.5835
 IR Inten    --      0.0000                 0.0000                 0.0168

                     19                     20                     21
                      A                      A                      A
 Frequencies --    490.6243               500.0091               557.2621
 Red. masses --      5.5251                12.0784                 5.0829
 Frc consts  --      0.7836                 1.7792                 0.9300
 IR Inten    --      1.5292                 0.0000                 0.0000

                     22                     23                     24
                      A                      A                      A
 Frequencies --    603.3369               612.5252               672.9141
 Red. masses --      6.5131                 4.8531                 1.8678
 Frc consts  --      1.3969                 1.0728                 0.4983
 IR Inten    --     34.2580                 0.0000                70.1457

                     25                     26                     27
                      A                      A                      A
 Frequencies --    689.0359               689.8657               712.6436
 Red. masses --      8.5803                 7.0820                 1.2725
 Frc consts  --      2.4001                 1.9858                 0.3808
 IR Inten    --    151.7960                 0.0157                 0.0000

                     28                     29                     30
                      A                      A                      A
 Frequencies --    726.4049               753.3758               766.2863
 Red. masses --      4.6711                 2.8709                 8.7001
 Frc consts  --      1.4522                 0.9600                 3.0099
 IR Inten    --     26.2226                24.8067                 0.0001

                     31                     32                     33
                      A                      A                      A
 Frequencies --    793.7294               802.7743               813.9737
 Red. masses --      1.4433                 1.3592                 5.2699
 Frc consts  --      0.5357                 0.5161                 2.0572
 IR Inten    --      0.0000                 1.3272                 0.0000

                     34                     35                     36
                      A                      A                      A
 Frequencies --    819.2092               931.0864               948.9334
 Red. masses --      6.9651                 6.8743                 8.5859
 Frc consts  --      2.7540                 3.5112                 4.5552
 IR Inten    --     17.4005                 0.0002                53.2428

                     37                     38                     39
                      A                      A                      A
 Frequencies --    969.6844               970.7760              1058.6395
 Red. masses --      1.2963                 1.3009                 2.1675
 Frc consts  --      0.7182                 0.7223                 1.4312
 IR Inten    --      0.0000                 3.7866               336.5845

                     40                     41                     42
                      A                      A                      A
 Frequencies --   1062.7883              1083.0313              1097.8370
 Red. masses --      2.1960                 3.1059                 2.7721
 Frc consts  --      1.4614                 2.1465                 1.9685
 IR Inten    --      0.0191                37.5375                 0.0001

                     43                     44                     45
                      A                      A                      A
 Frequencies --   1118.0697              1154.2642              1181.8035
 Red. masses --      2.4053                 1.3521                 3.0323
 Frc consts  --      1.7716                 1.0614                 2.4952
 IR Inten    --    271.2299                 0.0001                 0.0015

                     46                     47                     48
                      A                      A                      A
 Frequencies --   1193.1967              1219.3379              1308.3364
 Red. masses --      2.1159                 2.5281                 3.6908
 Frc consts  --      1.7749                 2.2146                 3.7223
 IR Inten    --    121.7874                77.0836                 0.0172

                     49                     50                     51
                      A                      A                      A
 Frequencies --   1312.6376              1336.0259              1337.4011
 Red. masses --      5.3547                 2.5826                 3.1481
 Frc consts  --      5.4360                 2.7160                 3.3176
 IR Inten    --    678.1264                 0.6965               694.7495

                     52                     53                     54
                      A                      A                      A
 Frequencies --   1412.1927              1419.3494              1459.0403
 Red. masses --      3.0134                 5.2168                 3.1641
 Frc consts  --      3.5407                 6.1920                 3.9685
 IR Inten    --    198.5525                 0.0028                 0.0003

                     55                     56                     57
                      A                      A                      A
 Frequencies --   1469.0561              1481.0380              1511.0388
 Red. masses --      8.5740                 4.8174                 5.3876
 Frc consts  --     10.9021                 6.2258                 7.2477
 IR Inten    --      0.0019               838.7764               133.3986

                     58                     59                     60
                      A                      A                      A
 Frequencies --   1569.8723              1570.1065              1579.5122
 Red. masses --      7.4488                 5.5319                 5.7143
 Frc consts  --     10.8160                 8.0350                 8.3997
 IR Inten    --      0.0143                 3.3430                 0.0000

                     61                     62                     63
                      A                      A                      A
 Frequencies --   3111.8403              3112.2282              3160.6132
 Red. masses --      1.0853                 1.0856                 1.0907
 Frc consts  --      6.1920                 6.1951                 6.4193
 IR Inten    --    137.4141                 0.2227                81.1250

                     64                     65                     66
                      A                      A                      A
 Frequencies --   3160.7617              3169.2286              3169.6954
 Red. masses --      1.0905                 1.0913                 1.0914
 Frc consts  --      6.4189                 6.4580                 6.4605
 IR Inten    --      0.0401                67.6758                 0.4389

 - Thermochemistry -
 -------------------
 Temperature   298.150 Kelvin.  Pressure   1.00000 Atm.
 Atom     1 has atomic number 17 and mass  34.96885

 Molecular mass:   275.97448 amu.
 Principal axes and moments of inertia in atomic units:
                           1         2         3
     Eigenvalues --  2764.558307285.35228**********
           X            0.81370  -0.58088  -0.02180
           Y            0.57486   0.79858   0.17832
           Z           -0.08617  -0.15763   0.98373
 This molecule is an asymmetric top.
 Rotational symmetry number  1.
 Warning -- assumption of classical behavior for rotation
           may cause significant error
 Rotational temperatures (Kelvin)      0.03133     0.01189     0.00862
 Rotational constants (GHZ):           0.65281     0.24772     0.17958
 Zero-point vibrational energy     403534.7 (Joules/Mol)
                                   96.44710 (Kcal/Mol)
 Warning -- explicit consideration of  23 degrees of freedom as
           vibrations may cause significant error
 Vibrational temperatures:     21.66    64.64    72.24   224.63   228.64
          (Kelvin)            278.95   284.99   297.54   374.99   455.36
                              462.38   517.37   541.79   547.41   583.88
                              596.57   688.37   696.84   705.90   719.40
                              801.78   868.07   881.29   968.17   991.37
                              992.56  1025.34  1045.13  1083.94  1102.52
                             1142.00  1155.01  1171.13  1178.66  1339.63
                             1365.30  1395.16  1396.73  1523.15  1529.12
                             1558.24  1579.54  1608.65  1660.73  1700.35
                             1716.74  1754.36  1882.40  1888.59  1922.24
                             1924.22  2031.83  2042.13  2099.23  2113.64
                             2130.88  2174.05  2258.70  2259.03  2272.57
                             4477.24  4477.80  4547.42  4547.63  4559.81
                             4560.48

 Zero-point correction=                           0.153698 (Hartree/Particle)
 Thermal correction to Energy=                    0.167893
 Thermal correction to Enthalpy=                  0.168837
 Thermal correction to Gibbs Free Energy=         0.110616
 Sum of electronic and zero-point Energies=          -1608.013413
 Sum of electronic and thermal Energies=             -1607.999218
 Sum of electronic and thermal Enthalpies=           -1607.998274
 Sum of electronic and thermal Free Energies=        -1608.056495

                     E (Thermal)             CV                S
                      KCal/Mol        Cal/Mol-Kelvin    Cal/Mol-Kelvin
 Total                  105.355             55.424            122.536
 Electronic               0.000              0.000              0.000
 Translational            0.889              2.981             42.744
 Rotational               0.889              2.981             33.670
 Vibrational            103.577             49.462             46.123
 Vibration     1          0.593              1.986              7.198
 Vibration     2          0.595              1.979              5.029
 Vibration     3          0.595              1.978              4.809
 Vibration     4          0.620              1.896              2.596
 Vibration     5          0.621              1.893              2.563
 Vibration     6          0.635              1.848              2.190
 Vibration     7          0.637              1.843              2.151
 Vibration     8          0.641              1.830              2.072
 Vibration     9          0.669              1.745              1.658
 Vibration    10          0.703              1.642              1.328
 Vibration    11          0.707              1.633              1.303
 Vibration    12          0.734              1.556              1.124
 Vibration    13          0.747              1.520              1.053
 Vibration    14          0.750              1.512              1.037
 Vibration    15          0.771              1.458              0.942
 Vibration    16          0.778              1.438              0.910
 Vibration    17          0.835              1.298              0.714
 Vibration    18          0.840              1.285              0.698
 Vibration    19          0.846              1.271              0.682
 Vibration    20          0.855              1.250              0.658
 Vibration    21          0.913              1.124              0.529
 Vibration    22          0.962              1.025              0.444
 Vibration    23          0.972              1.005              0.429

 Optimization completed.
    -- Stationary point found.
 Normal termination of Gaussian 16 at Thu Dec 21 07:31:56 2023.
