 Q-Chem 5.4, Q-Chem, Inc., Pleasanton, CA (2021)
 Q-Chem 5.4.0 for Intel X86 EM64T Linux

User input:
--------------------------------------------------------------
$molecule
-1 2
C                 -1.6749410000      0.8164670000      1.6355490000
C                 -2.8573130000      1.1188710000      0.8066850000
C                 -2.8061420000      1.0077620000     -0.5666230000
C                 -1.6353210000      0.6320280000     -1.3004610000
C                 -0.4527760000      0.3298840000     -0.4715910000
C                 -0.5039970000      0.4410010000      0.9017380000
O                 -1.5401020000      0.5588910000     -2.5537960000
O                 -1.7701690000      0.8890950000      2.8889030000
Br                 1.0869550000      0.0641780000      1.9371720000
Br                -4.3971120000      1.3841090000     -1.6021220000
N                  0.6491130000     -0.0888010000     -1.1907460000
N                 -3.9595300000      1.5383170000      1.5258500000
H                  0.5492530000      0.1169040000     -2.1783310000
H                  1.5527680000      0.0740250000     -0.7734190000
H                 -3.8590830000      1.3310920000      2.5132220000
H                 -4.8628720000      1.3704670000      1.1095940000
$end
$rem
MAX_SCF_CYCLES=200
BASIS  =  6-311++G(d,p)
GUI  =  2
JOB_TYPE  =  SP
METHOD  =  B3LYP
SOLVENT_METHOD = COSMO
$end
$solvent
dielectric 37.219
opticaldielectric 1.43
$end

--------------------------------------------------------------

             Standard Nuclear Orientation (Angstroms)
    I     Atom           X                Y                Z
 ----------------------------------------------------------------
    1      C       0.7237783032    -1.2806588446     0.0012902288
    2      C      -0.7493457513    -1.2031812177     0.0205254487
    3      C      -1.3942950530     0.0153070389     0.0042370843
    4      C      -0.7238525160     1.2806105389    -0.0012328834
    5      C       0.7493658776     1.2031635997    -0.0201719219
    6      C       1.3942828320    -0.0153683684    -0.0038904822
    7      O      -1.2778296948     2.4109779839     0.0241250636
    8      O       1.2778608831    -2.4109524681    -0.0245606320
    9      Br      3.3290847443    -0.0569931922     0.0036156695
   10      Br     -3.3290491595     0.0570669393    -0.0037279725
   11      N       1.3787663193     2.4304056915    -0.0862956210
   12      N      -1.3791679059    -2.4307323656     0.0872921467
   13      H       0.7434771623     3.1872840831     0.1398757440
   14      H       2.3131174589     2.4827390253     0.2898900515
   15      H      -0.7431928963    -3.1868616847    -0.1401710521
   16      H      -2.3116877469    -2.4828964580    -0.2937001139
 ----------------------------------------------------------------

   10   -5639.5028526727      5.50e-06  Convergence criterion met
 Total energy in the final basis set =    -5639.5028526727
    5   -5639.5887544166      5.92e-06  Convergence criterion met
 Total energy in the final basis set =    -5639.5887544166

                    Orbital Energies (a.u.)
 --------------------------------------------------------------

 Alpha MOs
 -- Occupied --
********-482.8271 -62.4799 -62.4799 -56.3002 -56.3002 -56.2966 -56.2966
-56.2965 -56.2964 -19.0871 -19.0871 -14.3211 -14.3211 -10.2388 -10.2388
-10.2227 -10.2227 -10.2097 -10.2097  -8.6886  -8.6886  -6.5195  -6.5195
 -6.5075  -6.5075  -6.5071  -6.5071  -2.6305  -2.6305  -2.6271  -2.6271
 -2.6268  -2.6268  -2.6173  -2.6173  -2.6172  -2.6172  -1.0193  -1.0156
 -0.9227  -0.9205  -0.8322  -0.8071  -0.7711  -0.7033  -0.6839  -0.5979
 -0.5886  -0.5574  -0.4930  -0.4926  -0.4889  -0.4490  -0.4393  -0.4243
 -0.4172  -0.4043  -0.3963  -0.3725  -0.3620  -0.3328  -0.3087  -0.3022
 -0.2934  -0.2932  -0.2646  -0.2561  -0.2522  -0.2116  -0.1586

 Beta MOs
 -- Occupied --
********-482.8271 -62.4799 -62.4799 -56.3002 -56.3002 -56.2966 -56.2966
-56.2965 -56.2965 -19.0818 -19.0818 -14.3197 -14.3196 -10.2366 -10.2366
-10.2202 -10.2202 -10.2106 -10.2105  -8.6886  -8.6886  -6.5195  -6.5195
 -6.5075  -6.5075  -6.5071  -6.5071  -2.6305  -2.6305  -2.6271  -2.6271
 -2.6268  -2.6268  -2.6173  -2.6173  -2.6172  -2.6172  -1.0103  -1.0063
 -0.9182  -0.9169  -0.8296  -0.8067  -0.7685  -0.7001  -0.6747  -0.5943
 -0.5846  -0.5557  -0.4904  -0.4898  -0.4866  -0.4464  -0.4251  -0.4181
 -0.4133  -0.4037  -0.3741  -0.3681  -0.3570  -0.3131  -0.3059  -0.2964
 -0.2932  -0.2914  -0.2596  -0.2513  -0.2350  -0.2058

          Ground-State Mulliken Net Atomic Charges

     Atom                 Charge (a.u.)    Spin (a.u.)
  --------------------------------------------------------
      1 C                    -0.716167       0.138380
      2 C                    -1.391842       0.143427
      3 C                     1.987616      -0.042871
      4 C                    -0.717482       0.138645
      5 C                    -1.398853       0.142596
      6 C                     1.995353      -0.042681
      7 O                    -0.498792       0.189684
      8 O                    -0.498586       0.189511
      9 Br                   -0.153338      -0.000034
     10 Br                   -0.153496      -0.000019
     11 N                    -0.298576       0.074034
     12 N                    -0.298822       0.073666
     13 H                     0.297701      -0.002186
     14 H                     0.273953      -0.000023
     15 H                     0.297493      -0.002164
     16 H                     0.273839       0.000036
  --------------------------------------------------------
  Sum of atomic charges =    -1.000000

                    Cartesian Multipole Moments
 -----------------------------------------------------------------
    Charge (ESU x 10^10)
                -4.8032
    Dipole Moment (Debye)
         X       0.0096      Y       0.0121      Z      -0.0091
       Tot       0.0179
    Quadrupole Moments (Debye-Ang)
        XX    -116.2235     XY      23.0699     YY    -115.1430
        XZ       4.3996     YZ       6.1510     ZZ    -100.4477

 Total job time:  48.54s(wall), 277.93s(cpu)
        *  Thank you very much for using Q-Chem.  Have a nice day.  *
