 Q-Chem 5.4, Q-Chem, Inc., Pleasanton, CA (2021)
 Q-Chem 5.4.0 for Intel X86 EM64T Linux

User input:
--------------------------------------------------------------
$molecule
-1 2
O                  2.3848220000      2.8801830000     -1.1795100000
N                  2.6613190000      2.3196040000     -0.1297210000
O                  3.2665190000      2.8384470000      0.8039710000
C                  2.3787240000      0.8649700000     -0.0335800000
C                  3.4979790000      0.0632760000     -0.0635790000
C                  3.3397830000     -1.3350460000     -0.1223290000
C                  2.0719330000     -1.8780040000     -0.1488490000
C                  0.9218140000     -1.0656320000     -0.0884450000
C                 -0.3921080000     -1.7149660000     -0.1072990000
O                 -0.5105780000     -2.9597140000     -0.1978050000
C                 -1.5543820000     -0.8289870000     -0.0113150000
C                 -2.8512600000     -1.3851900000     -0.0484440000
C                 -3.9721190000     -0.5858000000      0.0546850000
C                 -3.8293650000      0.8101190000      0.2047220000
C                 -2.5700030000      1.3744460000      0.2480700000
C                 -1.4106950000      0.5769540000      0.1374620000
C                 -0.0968720000      1.2277560000      0.1921220000
O                  0.0268450000      2.4523700000      0.4158180000
C                  1.0586310000      0.3570720000     -0.0016540000
H                  4.4817550000      0.5169650000     -0.0704110000
H                  4.2163270000     -1.9727330000     -0.1600110000
H                  1.9148620000     -2.9484390000     -0.2095850000
H                 -2.9298020000     -2.4604530000     -0.1590100000
H                 -4.9627850000     -1.0290780000      0.0221100000
H                 -4.7105370000      1.4392400000      0.2863960000
H                 -2.4308070000      2.4426410000      0.3661900000
$end
$rem
MAX_SCF_CYCLES=200
BASIS  =  6-311++G(d,p)
GUI  =  2
JOB_TYPE  =  SP
METHOD  =  B3LYP
SOLVENT_METHOD = PCM
$end
$pcm
theory = CPCM
$end
$solvent
dielectric 37.219
opticaldielectric 1.43
$end

--------------------------------------------------------------

             Standard Nuclear Orientation (Angstroms)
    I     Atom           X                Y                Z
 ----------------------------------------------------------------
    1      O       2.3848220000     2.8801830000    -1.1795100000
    2      N       2.6613190000     2.3196040000    -0.1297210000
    3      O       3.2665190000     2.8384470000     0.8039710000
    4      C       2.3787240000     0.8649700000    -0.0335800000
    5      C       3.4979790000     0.0632760000    -0.0635790000
    6      C       3.3397830000    -1.3350460000    -0.1223290000
    7      C       2.0719330000    -1.8780040000    -0.1488490000
    8      C       0.9218140000    -1.0656320000    -0.0884450000
    9      C      -0.3921080000    -1.7149660000    -0.1072990000
   10      O      -0.5105780000    -2.9597140000    -0.1978050000
   11      C      -1.5543820000    -0.8289870000    -0.0113150000
   12      C      -2.8512600000    -1.3851900000    -0.0484440000
   13      C      -3.9721190000    -0.5858000000     0.0546850000
   14      C      -3.8293650000     0.8101190000     0.2047220000
   15      C      -2.5700030000     1.3744460000     0.2480700000
   16      C      -1.4106950000     0.5769540000     0.1374620000
   17      C      -0.0968720000     1.2277560000     0.1921220000
   18      O       0.0268450000     2.4523700000     0.4158180000
   19      C       1.0586310000     0.3570720000    -0.0016540000
   20      H       4.4817550000     0.5169650000    -0.0704110000
   21      H       4.2163270000    -1.9727330000    -0.1600110000
   22      H       1.9148620000    -2.9484390000    -0.2095850000
   23      H      -2.9298020000    -2.4604530000    -0.1590100000
   24      H      -4.9627850000    -1.0290780000     0.0221100000
   25      H      -4.7105370000     1.4392400000     0.2863960000
   26      H      -2.4308070000     2.4426410000     0.3661900000
 ----------------------------------------------------------------

   10    -893.6600492328      9.62e-06  Convergence criterion met
 Total energy in the final basis set =     -893.6600492328

                    Orbital Energies (a.u.)
 --------------------------------------------------------------

 Alpha MOs
 -- Occupied --
-19.1715 -19.1706 -19.0869 -19.0866 -14.5598 -10.2380 -10.2374 -10.2365
-10.1971 -10.1960 -10.1877 -10.1856 -10.1837 -10.1812 -10.1798 -10.1773
-10.1767 -10.1747 -10.1744  -1.2453  -1.0724  -1.0180  -1.0141  -0.8876
 -0.8623  -0.8105  -0.7942  -0.7563  -0.7513  -0.7081  -0.6757  -0.6435
 -0.6322  -0.5921  -0.5756  -0.5611  -0.5417  -0.5347  -0.5307  -0.5134
 -0.4812  -0.4742  -0.4649  -0.4590  -0.4350  -0.4289  -0.4246  -0.4225
 -0.4130  -0.3931  -0.3880  -0.3830  -0.3778  -0.3567  -0.3527  -0.3442
 -0.3310  -0.3227  -0.3220  -0.2794  -0.2701  -0.2619  -0.2589  -0.2569
 -0.2488  -0.1523

 Beta MOs
 -- Occupied --
-19.1713 -19.1703 -19.0817 -19.0813 -14.5595 -10.2378 -10.2356 -10.2348
-10.1959 -10.1958 -10.1867 -10.1848 -10.1838 -10.1807 -10.1793 -10.1769
-10.1763 -10.1746 -10.1743  -1.2448  -1.0719  -1.0087  -1.0048  -0.8855
 -0.8607  -0.8082  -0.7910  -0.7544  -0.7495  -0.7052  -0.6702  -0.6414
 -0.6296  -0.5915  -0.5742  -0.5589  -0.5400  -0.5334  -0.5296  -0.5115
 -0.4784  -0.4733  -0.4634  -0.4582  -0.4285  -0.4226  -0.4210  -0.4189
 -0.4103  -0.3868  -0.3802  -0.3766  -0.3701  -0.3554  -0.3433  -0.3432
 -0.3282  -0.3216  -0.3201  -0.2655  -0.2600  -0.2547  -0.2535  -0.2513
 -0.2439

          Ground-State Mulliken Net Atomic Charges

     Atom                 Charge (a.u.)    Spin (a.u.)
  --------------------------------------------------------
      1 O                    -0.050963       0.006709
      2 N                    -0.136821       0.007797
      3 O                    -0.042640       0.011362
      4 C                    -0.242892       0.039401
      5 C                     0.177043       0.017128
      6 C                    -0.496359       0.069699
      7 C                    -0.224555      -0.000169
      8 C                     1.022217       0.064506
      9 C                    -0.282958       0.088354
     10 O                    -0.447517       0.192969
     11 C                     0.346908       0.010865
     12 C                     0.021031       0.025110
     13 C                    -0.511380       0.029382
     14 C                    -0.460792       0.028435
     15 C                     0.088105       0.036767
     16 C                     0.024308       0.027235
     17 C                    -0.966972       0.089135
     18 O                    -0.412338       0.206484
     19 C                     0.193830       0.063230
     20 H                     0.244422      -0.001525
     21 H                     0.222874      -0.004305
     22 H                     0.176486      -0.000285
     23 H                     0.175337      -0.001806
     24 H                     0.202212      -0.002399
     25 H                     0.204342      -0.002393
     26 H                     0.177073      -0.001687
  --------------------------------------------------------
  Sum of atomic charges =    -1.000000

                    Cartesian Multipole Moments
 -----------------------------------------------------------------
    Charge (ESU x 10^10)
                -4.8032
    Dipole Moment (Debye)
         X      -1.7997      Y      -4.6704      Z      -0.2582
       Tot       5.0118
    Quadrupole Moments (Debye-Ang)
        XX    -104.9966     XY     -21.8932     YY    -157.8496
        XZ      -1.9631     YZ      -1.9915     ZZ    -118.2686

 Total job time:  112.82s(wall), 532.53s(cpu)
        *  Thank you very much for using Q-Chem.  Have a nice day.  *
