 Q-Chem 5.4, Q-Chem, Inc., Pleasanton, CA (2021)
 Q-Chem 5.4.0 for Intel X86 EM64T Linux

User input:
--------------------------------------------------------------
$molecule
0 1
C                  5.9228460000     -5.2187110000      1.1094300000
C                  6.8204160000     -5.0891700000      0.0553880000
C                  6.6095950000     -4.1072800000     -0.9268200000
C                  4.8151510000     -4.3788580000      1.1958860000
C                  4.6043490000     -3.3970390000      0.2137390000
C                  5.5040530000     -3.2682740000     -0.8416090000
C                  3.8624430000     -4.5329980000      2.3350040000
C                  2.7023980000     -3.6092750000      2.3728330000
C                  2.5012290000     -2.6723800000      1.4356480000
C                  3.4231390000     -2.4869900000      0.2884150000
O                  4.0183350000     -5.3751990000      3.2021330000
O                  3.2132890000     -1.6258380000     -0.5481870000
H                  6.0772810000     -5.9725230000      1.8708220000
H                  5.3334900000     -2.5088060000     -1.5938750000
Cl                 7.7102250000     -3.9133190000     -2.2618360000
Cl                 8.1923330000     -6.1588100000     -0.0156830000
H                  2.0272510000     -3.7435120000      3.2109910000
H                  1.6524240000     -1.9978170000      1.4647700000
$end
$rem
MAX_SCF_CYCLES=200
BASIS  =  6-311++G(d,p)
GUI  =  2
JOB_TYPE  =  SP
METHOD  =  B3LYP
SOLVENT_METHOD = COSMO
$end
$solvent
dielectric 37.219
opticaldielectric 1.43
$end

--------------------------------------------------------------

             Standard Nuclear Orientation (Angstroms)
    I     Atom           X                Y                Z
 ----------------------------------------------------------------
    1      C      -0.2899459277    -1.3951660539     0.0001025981
    2      C      -1.4955260655    -0.7023501760     0.0000390073
    3      C      -1.4955532728     0.7023868172     0.0000607819
    4      C       0.9182606977    -0.7023077243     0.0001143639
    5      C       0.9182256363     0.7023341375     0.0001395012
    6      C      -0.2899727671     1.3952004535     0.0001384340
    7      C       2.2026072184    -1.4635274726     0.0001228569
    8      C       3.4560068445    -0.6701872283    -0.0003772624
    9      C       3.4559945799     0.6701697881    -0.0003589464
   10      C       2.2025948104     1.4635296289     0.0001281194
   11      O       2.2349963081    -2.6819151264     0.0002434826
   12      O       2.2350321511     2.6819181176     0.0002019912
   13      H      -0.2802983505    -2.4776203956     0.0001251701
   14      H      -0.2802455512     2.4776480940     0.0001786886
   15      Cl     -2.9836314582     1.6062110685    -0.0000929981
   16      Cl     -2.9835834518    -1.6062430171    -0.0000970751
   17      H       4.3734203603    -1.2487235184    -0.0006580114
   18      H       4.3733988133     1.2487219951    -0.0006351160
 ----------------------------------------------------------------

    9   -1454.4964463838      4.19e-06  Convergence criterion met
 Total energy in the final basis set =    -1454.4964463838
    5   -1454.5097577150      4.32e-06  Convergence criterion met
 Total energy in the final basis set =    -1454.5097577150

                    Orbital Energies (a.u.)
 --------------------------------------------------------------

 Alpha MOs
 -- Occupied --
********-101.5782 -19.1464 -19.1464 -10.2947 -10.2947 -10.2752 -10.2747
-10.2230 -10.2225 -10.2180 -10.2180 -10.2168 -10.2160  -9.4928  -9.4928
 -7.2576  -7.2576  -7.2478  -7.2478  -7.2469  -7.2469  -1.0800  -1.0782
 -0.9425  -0.8835  -0.8829  -0.8377  -0.7880  -0.7677  -0.7082  -0.6643
 -0.6473  -0.6078  -0.5511  -0.5398  -0.5274  -0.4961  -0.4795  -0.4766
 -0.4696  -0.4658  -0.4475  -0.4434  -0.4318  -0.4297  -0.4108  -0.4002
 -0.3697  -0.3557  -0.3501  -0.3308  -0.3152  -0.2997  -0.2880  -0.2866
 -0.2759

          Ground-State Mulliken Net Atomic Charges

     Atom                 Charge (a.u.)
  ----------------------------------------
      1 C                    -0.512588
      2 C                     0.621631
      3 C                     0.621333
      4 C                    -0.339369
      5 C                    -0.339520
      6 C                    -0.512578
      7 C                    -0.713090
      8 C                     0.125239
      9 C                     0.125136
     10 C                    -0.713279
     11 O                    -0.296695
     12 O                    -0.296691
     13 H                     0.252974
     14 H                     0.252968
     15 Cl                    0.599816
     16 Cl                    0.599680
     17 H                     0.262519
     18 H                     0.262512
  ----------------------------------------
  Sum of atomic charges =     0.000000

                    Cartesian Multipole Moments
 -----------------------------------------------------------------
    Charge (ESU x 10^10)
                 0.0000
    Dipole Moment (Debye)
         X       1.5227      Y      -0.0004      Z      -0.0010
       Tot       1.5227
    Quadrupole Moments (Debye-Ang)
        XX     -85.7198     XY      -0.0010     YY    -110.6380
        XZ      -0.0042     YZ      -0.0003     ZZ     -93.2116

 Total job time:  30.87s(wall), 224.00s(cpu)
        *  Thank you very much for using Q-Chem.  Have a nice day.  *
