 Gaussian 16, Revision A.03,
 Gaussian 16:  ES64L-G16RevA.03 25-Dec-2016

 --------------------------------------
 #P UB3LYP/6-311++G(d,p) nosym opt freq
 --------------------------------------

 --------
 Oxidized
 --------
 Symbolic Z-matrix:
 Charge =  0 Multiplicity = 1

 SCF Done:  E(UB3LYP) =  -1454.49645206     A.U. after   15 cycles
 Optimization completed.
    -- Stationary point found.
 Normal termination of Gaussian 16 at Sun Jan  7 20:13:17 2024.

 ----------------------------------------------------------------------
 #P Geom=AllCheck Guess=TCheck SCRF=Check GenChk UB3LYP/6-311++G(d,p) F
 req
 ----------------------------------------------------------------------

 Structure from the checkpoint file:  "232.chk"
 --------
 Oxidized
 --------
 Charge =  0 Multiplicity = 1

                          Input orientation:
 ---------------------------------------------------------------------
 Center     Atomic      Atomic             Coordinates (Angstroms)
 Number     Number       Type             X           Y           Z
 ---------------------------------------------------------------------
      1          6           0        5.922846   -5.218711    1.109430
      2          6           0        6.820416   -5.089170    0.055388
      3          6           0        6.609595   -4.107280   -0.926820
      4          6           0        4.815151   -4.378858    1.195886
      5          6           0        4.604349   -3.397039    0.213739
      6          6           0        5.504053   -3.268274   -0.841609
      7          6           0        3.862443   -4.532998    2.335004
      8          6           0        2.702398   -3.609275    2.372833
      9          6           0        2.501229   -2.672380    1.435648
     10          6           0        3.423139   -2.486990    0.288415
     11          8           0        4.018335   -5.375199    3.202133
     12          8           0        3.213289   -1.625838   -0.548187
     13          1           0        6.077281   -5.972523    1.870822
     14          1           0        5.333490   -2.508806   -1.593875
     15         17           0        7.710225   -3.913319   -2.261836
     16         17           0        8.192333   -6.158810   -0.015683
     17          1           0        2.027251   -3.743512    3.210991
     18          1           0        1.652424   -1.997817    1.464770
 ---------------------------------------------------------------------

 SCF Done:  E(UB3LYP) =  -1454.49645206     A.U. after    2 cycles

 Alpha  occ. eigenvalues -- -101.58263-101.58263 -19.14903 -19.14902 -10.29864
 Alpha  occ. eigenvalues --  -10.29863 -10.28295 -10.28246 -10.23141 -10.23091
 Alpha  occ. eigenvalues --  -10.22995 -10.22913 -10.22683 -10.22681  -9.49721
 Alpha  occ. eigenvalues --   -9.49720  -7.26206  -7.26206  -7.25209  -7.25208
 Alpha  occ. eigenvalues --   -7.25132  -7.25132  -1.08200  -1.08007  -0.94955
 Alpha  occ. eigenvalues --   -0.89148  -0.88825  -0.84837  -0.79597  -0.77630
 Alpha  occ. eigenvalues --   -0.71656  -0.67343  -0.65613  -0.61669  -0.55904
 Alpha  occ. eigenvalues --   -0.54764  -0.53263  -0.50588  -0.48603  -0.48156
 Alpha  occ. eigenvalues --   -0.47370  -0.47331  -0.45407  -0.45122  -0.43834
 Alpha  occ. eigenvalues --   -0.43259  -0.41917  -0.40753  -0.37446  -0.36188
 Alpha  occ. eigenvalues --   -0.35405  -0.33457  -0.32480  -0.30090  -0.29445
 Alpha  occ. eigenvalues --   -0.29056  -0.28298
 Alpha virt. eigenvalues --   -0.14246  -0.08057  -0.05772  -0.02682  -0.01135
 Alpha virt. eigenvalues --   -0.00061   0.00594   0.01117   0.01905   0.02801
 Alpha virt. eigenvalues --    0.03001   0.03186   0.03829   0.04096   0.06069

  Beta  occ. eigenvalues -- -101.58263-101.58263 -19.14903 -19.14902 -10.29864
  Beta  occ. eigenvalues --  -10.29863 -10.28295 -10.28246 -10.23141 -10.23091
  Beta  occ. eigenvalues --  -10.22995 -10.22913 -10.22683 -10.22681  -9.49721
  Beta  occ. eigenvalues --   -9.49720  -7.26206  -7.26206  -7.25209  -7.25208
  Beta  occ. eigenvalues --   -7.25132  -7.25132  -1.08200  -1.08007  -0.94955
  Beta  occ. eigenvalues --   -0.89148  -0.88825  -0.84837  -0.79597  -0.77630
  Beta  occ. eigenvalues --   -0.71656  -0.67343  -0.65613  -0.61669  -0.55904
  Beta  occ. eigenvalues --   -0.54764  -0.53263  -0.50588  -0.48603  -0.48156
  Beta  occ. eigenvalues --   -0.47370  -0.47331  -0.45407  -0.45122  -0.43834
  Beta  occ. eigenvalues --   -0.43259  -0.41917  -0.40753  -0.37446  -0.36188
  Beta  occ. eigenvalues --   -0.35405  -0.33457  -0.32480  -0.30090  -0.29445
  Beta  occ. eigenvalues --   -0.29056  -0.28298
  Beta virt. eigenvalues --   -0.14246  -0.08057  -0.05772  -0.02682  -0.01135
  Beta virt. eigenvalues --   -0.00061   0.00594   0.01117   0.01905   0.02801
  Beta virt. eigenvalues --    0.03001   0.03186   0.03829   0.04096   0.06069

 Mulliken charges and spin densities:
               1          2
     1  C   -0.563731   0.000000
     2  C    0.663847   0.000000
     3  C    0.663811   0.000000
     4  C   -0.340579  -0.000000
     5  C   -0.340129   0.000000
     6  C   -0.563592  -0.000000
     7  C   -0.803385   0.000000
     8  C    0.164346  -0.000000
     9  C    0.164421   0.000000
    10  C   -0.803560  -0.000000
    11  O   -0.215791  -0.000000
    12  O   -0.215798   0.000000
    13  H    0.238033   0.000000
    14  H    0.238020   0.000000
    15  Cl   0.632862   0.000000
    16  Cl   0.632804   0.000000
    17  H    0.224212   0.000000
    18  H    0.224209  -0.000000
 Sum of Mulliken charges =  -0.00000   0.00000

 Dipole moment (field-independent basis, Debye):
    X=             -0.8431    Y=              0.2994    Z=              0.4802  Tot=              1.0154
 Quadrupole moment (field-independent basis, Debye-Ang):
   XX=            -98.3219   YY=           -101.8528   ZZ=            -98.2053
   XY=              4.9529   XZ=             -1.6037   YZ=              5.6095

  Exact polarizability: 164.939 -43.332 133.462 -41.113 -32.450 151.605
 Approx polarizability: 241.986 -68.193 240.887 -46.433 -87.712 265.545

                      1                      2                      3
                      A                      A                      A
 Frequencies --     59.4020                74.6624               115.8660
 Red. masses --     20.3774                 6.1205                11.3635
 Frc consts  --      0.0424                 0.0201                 0.0899
 IR Inten    --      0.0000                 8.2205                 3.9124

                      4                      5                      6
                      A                      A                      A
 Frequencies --    171.0566               194.9272               199.8387
 Red. masses --     13.5537                 5.9394                30.7411
 Frc consts  --      0.2337                 0.1330                 0.7233
 IR Inten    --      0.0056                 0.0000                 0.0871

                      7                      8                      9
                      A                      A                      A
 Frequencies --    269.3088               303.5850               303.7906
 Red. masses --      4.2534                17.3690                16.4599
 Frc consts  --      0.1818                 0.9432                 0.8950
 IR Inten    --      0.0000                 0.5173                 0.0072

                     10                     11                     12
                      A                      A                      A
 Frequencies --    303.9181               442.1582               447.0685
 Red. masses --      8.4652                 3.4003                11.6155
 Frc consts  --      0.4607                 0.3917                 1.3678
 IR Inten    --      0.1168                 4.3093                27.5426

                     13                     14                     15
                      A                      A                      A
 Frequencies --    462.6242               479.3482               534.6114
 Red. masses --      7.4607                11.3996                 8.8462
 Frc consts  --      0.9408                 1.5433                 1.4896
 IR Inten    --      1.2663                31.9758                 3.0008

                     16                     17                     18
                      A                      A                      A
 Frequencies --    569.1545               613.0919               616.1512
 Red. masses --      9.6141                 4.3586                 2.2110
 Frc consts  --      1.8349                 0.9653                 0.4946
 IR Inten    --      0.0000                 0.4006                 0.1624

                     19                     20                     21
                      A                      A                      A
 Frequencies --    661.5420               677.6527               717.6349
 Red. masses --      7.4272                 5.6977                 7.1206
 Frc consts  --      1.9151                 1.5416                 2.1606
 IR Inten    --     15.4436                 0.0000                 6.7347

                     22                     23                     24
                      A                      A                      A
 Frequencies --    779.8177               790.2648               866.0696
 Red. masses --      7.1470                 7.6046                 1.8934
 Frc consts  --      2.5607                 2.7981                 0.8368
 IR Inten    --      2.5943                 0.0000                63.5077

                     25                     26                     27
                      A                      A                      A
 Frequencies --    899.2413               917.9535               945.1159
 Red. masses --      7.7496                 1.3387                 1.4608
 Frc consts  --      3.6922                 0.6646                 0.7688
 IR Inten    --     63.7061                 0.0000                11.4948

                     28                     29                     30
                      A                      A                      A
 Frequencies --   1016.6705              1065.0966              1084.8816
 Red. masses --      1.2510                 2.4029                 5.6050
 Frc consts  --      0.7618                 1.6061                 3.8868
 IR Inten    --      0.0000                42.7322                 4.3935

                     31                     32                     33
                      A                      A                      A
 Frequencies --   1132.6782              1177.5106              1230.9699
 Red. masses --      1.6783                 1.9212                 3.7359
 Frc consts  --      1.2687                 1.5694                 3.3353
 IR Inten    --      9.9402                93.4976                 0.2419

                     34                     35                     36
                      A                      A                      A
 Frequencies --   1252.9125              1310.9720              1328.1343
 Red. masses --      1.3585                 3.6580                 9.4614
 Frc consts  --      1.2565                 3.7041                 9.8331
 IR Inten    --      2.4285               422.3886                49.8888

                     37                     38                     39
                      A                      A                      A
 Frequencies --   1374.2567              1409.9391              1486.3493
 Red. masses --      2.1570                 4.3394                 3.1597
 Frc consts  --      2.4001                 5.0826                 4.1128
 IR Inten    --      0.0639                10.4014                 9.5050

                     40                     41                     42
                      A                      A                      A
 Frequencies --   1582.2794              1608.4542              1661.9947
 Red. masses --     10.5870                 6.9356                 8.0138
 Frc consts  --     15.6167                10.5718                13.0420
 IR Inten    --     12.5073               143.5752                35.3466

                     43                     44                     45
                      A                      A                      A
 Frequencies --   1727.0933              1732.4219              3175.3287
 Red. masses --     10.8133                11.6089                 1.0874
 Frc consts  --     19.0039                20.5280                 6.4598
 IR Inten    --     38.6200               382.1370                 0.5820

                     46                     47                     48
                      A                      A                      A
 Frequencies --   3192.4827              3206.4134              3207.9330
 Red. masses --      1.0986                 1.0913                 1.0918
 Frc consts  --      6.5972                 6.6107                 6.6197
 IR Inten    --      3.5511                 6.3442                 2.9546

 - Thermochemistry -
 -------------------
 Temperature   298.150 Kelvin.  Pressure   1.00000 Atm.
 Atom     1 has atomic number  6 and mass  12.00000

 Molecular mass:   225.95883 amu.
 Principal axes and moments of inertia in atomic units:
                           1         2         3
     Eigenvalues --  1994.889014639.717746634.60670
           X            0.83074   0.15009   0.53605
           Y           -0.29428  -0.69900   0.65177
           Z           -0.47252   0.69919   0.53652
 This molecule is an asymmetric top.
 Rotational symmetry number  1.
 Warning -- assumption of classical behavior for rotation
           may cause significant error
 Rotational temperatures (Kelvin)      0.04342     0.01867     0.01305
 Rotational constants (GHZ):           0.90468     0.38898     0.27202
 Zero-point vibrational energy     295361.8 (Joules/Mol)
                                   70.59315 (Kcal/Mol)
 Warning -- explicit consideration of  18 degrees of freedom as
           vibrations may cause significant error
 Vibrational temperatures:     85.47   107.42   166.71   246.11   280.46
          (Kelvin)            287.52   387.48   436.79   437.09   437.27
                              636.17   643.23   665.61   689.68   769.19
                              818.89   882.10   886.50   951.81   974.99
                             1032.52  1121.98  1137.01  1246.08  1293.81
                             1320.73  1359.81  1462.76  1532.44  1560.90
                             1629.67  1694.18  1771.09  1802.66  1886.20
                             1910.89  1977.25  2028.59  2138.53  2276.55
                             2314.21  2391.24  2484.90  2492.57  4568.59
                             4593.27  4613.31  4615.50

 Zero-point correction=                           0.112497 (Hartree/Particle)
 Thermal correction to Energy=                    0.123736
 Thermal correction to Enthalpy=                  0.124680
 Thermal correction to Gibbs Free Energy=         0.074151
 Sum of electronic and zero-point Energies=          -1454.383955
 Sum of electronic and thermal Energies=             -1454.372716
 Sum of electronic and thermal Enthalpies=           -1454.371772
 Sum of electronic and thermal Free Energies=        -1454.422301

                     E (Thermal)             CV                S
                      KCal/Mol        Cal/Mol-Kelvin    Cal/Mol-Kelvin
 Total                   77.645             42.255            106.347
 Electronic               0.000              0.000              0.000
 Translational            0.889              2.981             42.148
 Rotational               0.889              2.981             32.485
 Vibrational             75.868             36.293             31.714
 Vibration     1          0.597              1.974              4.477
 Vibration     2          0.599              1.966              4.027
 Vibration     3          0.608              1.936              3.168
 Vibration     4          0.626              1.878              2.424
 Vibration     5          0.636              1.847              2.180
 Vibration     6          0.638              1.840              2.135
 Vibration     7          0.674              1.730              1.601
 Vibration     8          0.695              1.667              1.397
 Vibration     9          0.695              1.667              1.396
 Vibration    10          0.695              1.666              1.395
 Vibration    11          0.802              1.378              0.820
 Vibration    12          0.806              1.367              0.805
 Vibration    13          0.820              1.333              0.759
 Vibration    14          0.836              1.296              0.712
 Vibration    15          0.890              1.173              0.577
 Vibration    16          0.925              1.098              0.506
 Vibration    17          0.972              1.004              0.428
 Vibration    18          0.976              0.998              0.423

 Optimization completed.
    -- Stationary point found.
 Normal termination of Gaussian 16 at Sun Jan  7 20:22:53 2024.
