 Q-Chem 5.4, Q-Chem, Inc., Pleasanton, CA (2021)
 Q-Chem 5.4.0 for Intel X86 EM64T Linux

User input:
--------------------------------------------------------------
$molecule
0 1
C                  0.8174400000      1.6355810000     -0.6761270000
C                 -0.5576680000      1.0000910000     -0.6270030000
C                 -0.6815080000     -0.2292040000     -0.0582670000
C                  0.5803750000     -0.9729120000      0.3313930000
C                  1.9326100000     -0.3522460000      0.2239470000
C                  2.0437040000      0.9090360000     -0.2360000000
C                  3.3199860000      1.6900330000     -0.3727390000
C                  3.0653570000     -1.2320520000      0.6714690000
O                  0.9459630000      2.7837040000     -1.0790330000
O                  0.5095100000     -2.1232830000      0.7420690000
H                  4.1812850000      1.1502600000      0.0137120000
H                  3.2354880000      2.6433500000      0.1544150000
H                  3.5037570000      1.9410690000     -1.4212790000
H                  3.0402020000     -2.1812090000      0.1308240000
H                  2.9570920000     -1.4855260000      1.7299030000
H                  4.0370450000     -0.7677020000      0.5207410000
C                 -1.9277550000     -1.0642220000      0.2406050000
C                 -3.1152720000     -0.3426290000      0.8962010000
C                 -2.3478730000     -1.9463340000     -0.9558600000
C                 -1.6160770000      1.9296200000     -1.2233250000
C                 -2.2553490000      2.8535660000     -0.1632570000
C                 -2.6508200000      1.2992740000     -2.1681870000
H                 -1.5780610000     -1.7747860000      0.9906410000
H                 -3.8141830000     -1.0956870000      1.2726060000
H                 -3.6725680000      0.3039650000      0.2209690000
H                 -2.7894030000      0.2570320000      1.7499490000
H                 -3.1380320000     -2.6348670000     -0.6416100000
H                 -1.5056970000     -2.5482860000     -1.3043720000
H                 -2.7232280000     -1.3638580000     -1.7969920000
H                 -1.0313720000      2.6030350000     -1.8512910000
H                 -2.8809320000      3.6008940000     -0.6605810000
H                 -1.4843720000      3.3885790000      0.3957010000
H                 -2.8786970000      2.3112160000      0.5473220000
H                 -3.1689850000      2.1022660000     -2.7010830000
H                 -3.4110760000      0.7048730000     -1.6648810000
H                 -2.1667580000      0.6682790000     -2.9180090000
$end
$rem
MAX_SCF_CYCLES=200
BASIS  =  6-311++G(d,p)
GUI  =  2
JOB_TYPE  =  SP
METHOD  =  B3LYP
SOLVENT_METHOD = PCM
$end
$pcm
theory = CPCM
$end
$solvent
dielectric 37.219
opticaldielectric 1.43
$end

--------------------------------------------------------------

             Standard Nuclear Orientation (Angstroms)
    I     Atom           X                Y                Z
 ----------------------------------------------------------------
    1      C       0.8174400000     1.6355810000    -0.6761270000
    2      C      -0.5576680000     1.0000910000    -0.6270030000
    3      C      -0.6815080000    -0.2292040000    -0.0582670000
    4      C       0.5803750000    -0.9729120000     0.3313930000
    5      C       1.9326100000    -0.3522460000     0.2239470000
    6      C       2.0437040000     0.9090360000    -0.2360000000
    7      C       3.3199860000     1.6900330000    -0.3727390000
    8      C       3.0653570000    -1.2320520000     0.6714690000
    9      O       0.9459630000     2.7837040000    -1.0790330000
   10      O       0.5095100000    -2.1232830000     0.7420690000
   11      H       4.1812850000     1.1502600000     0.0137120000
   12      H       3.2354880000     2.6433500000     0.1544150000
   13      H       3.5037570000     1.9410690000    -1.4212790000
   14      H       3.0402020000    -2.1812090000     0.1308240000
   15      H       2.9570920000    -1.4855260000     1.7299030000
   16      H       4.0370450000    -0.7677020000     0.5207410000
   17      C      -1.9277550000    -1.0642220000     0.2406050000
   18      C      -3.1152720000    -0.3426290000     0.8962010000
   19      C      -2.3478730000    -1.9463340000    -0.9558600000
   20      C      -1.6160770000     1.9296200000    -1.2233250000
   21      C      -2.2553490000     2.8535660000    -0.1632570000
   22      C      -2.6508200000     1.2992740000    -2.1681870000
   23      H      -1.5780610000    -1.7747860000     0.9906410000
   24      H      -3.8141830000    -1.0956870000     1.2726060000
   25      H      -3.6725680000     0.3039650000     0.2209690000
   26      H      -2.7894030000     0.2570320000     1.7499490000
   27      H      -3.1380320000    -2.6348670000    -0.6416100000
   28      H      -1.5056970000    -2.5482860000    -1.3043720000
   29      H      -2.7232280000    -1.3638580000    -1.7969920000
   30      H      -1.0313720000     2.6030350000    -1.8512910000
   31      H      -2.8809320000     3.6008940000    -0.6605810000
   32      H      -1.4843720000     3.3885790000     0.3957010000
   33      H      -2.8786970000     2.3112160000     0.5473220000
   34      H      -3.1689850000     2.1022660000    -2.7010830000
   35      H      -3.4110760000     0.7048730000    -1.6648810000
   36      H      -2.1667580000     0.6682790000    -2.9180090000
 ----------------------------------------------------------------

    8    -696.1666373133      4.50e-06  Convergence criterion met
 Total energy in the final basis set =     -696.1666373133

                    Orbital Energies (a.u.)
 --------------------------------------------------------------

 Alpha MOs
 -- Occupied --
-19.1315 -19.1315 -10.2762 -10.2762 -10.2079 -10.2072 -10.2063 -10.2055
-10.1811 -10.1810 -10.1691 -10.1691 -10.1571 -10.1571 -10.1562 -10.1562
 -1.0665  -1.0646  -0.8602  -0.8311  -0.7953  -0.7611  -0.7464  -0.6888
 -0.6876  -0.6830  -0.6762  -0.6172  -0.5998  -0.5722  -0.5377  -0.5310
 -0.4883  -0.4643  -0.4618  -0.4520  -0.4498  -0.4450  -0.4323  -0.4297
 -0.4227  -0.4205  -0.4065  -0.4044  -0.3937  -0.3922  -0.3900  -0.3897
 -0.3789  -0.3773  -0.3574  -0.3481  -0.3468  -0.3443  -0.3292  -0.3201
 -0.2891  -0.2872  -0.2629  -0.2609

          Ground-State Mulliken Net Atomic Charges

     Atom                 Charge (a.u.)
  ----------------------------------------
      1 C                    -1.090935
      2 C                     1.023058
      3 C                     1.020968
      4 C                    -1.083911
      5 C                     0.266275
      6 C                     0.269525
      7 C                    -0.531604
      8 C                    -0.531313
      9 O                    -0.238870
     10 O                    -0.239239
     11 H                     0.141435
     12 H                     0.197072
     13 H                     0.200156
     14 H                     0.197233
     15 H                     0.200330
     16 H                     0.141279
     17 C                     0.227208
     18 C                    -0.674693
     19 C                    -0.695240
     20 C                     0.223804
     21 C                    -0.694808
     22 C                    -0.671753
     23 H                     0.218312
     24 H                     0.176319
     25 H                     0.141278
     26 H                     0.153630
     27 H                     0.163867
     28 H                     0.178385
     29 H                     0.139421
     30 H                     0.219006
     31 H                     0.163684
     32 H                     0.178011
     33 H                     0.139923
     34 H                     0.176341
     35 H                     0.141601
     36 H                     0.154244
  ----------------------------------------
  Sum of atomic charges =     0.000000

                    Cartesian Multipole Moments
 -----------------------------------------------------------------
    Charge (ESU x 10^10)
                 0.0000
    Dipole Moment (Debye)
         X       0.0473      Y      -0.0025      Z       0.0100
       Tot       0.0484
    Quadrupole Moments (Debye-Ang)
        XX     -85.8144     XY      -1.7997     YY    -114.1843
        XZ       1.9862     YZ       4.9591     ZZ     -99.3955

 Total job time:  121.41s(wall), 437.18s(cpu)
        *  Thank you very much for using Q-Chem.  Have a nice day.  *
