 Q-Chem 5.4, Q-Chem, Inc., Pleasanton, CA (2021)
 Q-Chem 5.4.0 for Intel X86 EM64T Linux

User input:
--------------------------------------------------------------
$molecule
-1 2
C                 -1.2353400000      2.8744710000     -0.0821850000
C                 -2.5335630000      2.3995080000     -0.0970400000
C                 -2.7785500000      1.0117980000     -0.0498620000
C                 -0.1359130000      1.9913970000     -0.0206610000
C                 -0.3853490000      0.5918420000      0.0271910000
C                 -1.7146740000      0.1292160000      0.0113380000
C                  1.2238420000      2.5457340000     -0.0048570000
C                  2.2856740000      1.5558200000      0.0583070000
C                  2.0462750000      0.1966260000      0.1039190000
C                  0.7260140000     -0.3721920000      0.0927030000
O                  1.4494500000      3.7825990000     -0.0402940000
O                  0.5300790000     -1.6156640000      0.1345420000
H                 -1.0204710000      3.9364780000     -0.1173830000
H                 -1.8683370000     -0.9435580000      0.0488750000
O                  3.5472650000      2.1036170000      0.0685430000
C                  4.6539500000      1.2356620000      0.2254420000
C                  5.8903870000      2.0788630000      0.3112520000
C                  7.0251600000      1.8266020000     -0.3363670000
H                 -3.3662660000      3.0956160000     -0.1452920000
H                 -3.7985990000      0.6388130000     -0.0615140000
H                  2.8562040000     -0.5213900000      0.1469570000
H                  4.7267710000      0.5248620000     -0.6086110000
H                  4.5396210000      0.6488940000      1.1503890000
H                  5.8133450000      2.9381850000      0.9729690000
H                  7.1161770000      0.9865070000     -1.0190310000
H                  7.9027570000      2.4514040000     -0.2100210000
$end
$rem
MAX_SCF_CYCLES=200
BASIS  =  6-311++G(d,p)
GUI  =  2
JOB_TYPE  =  SP
METHOD  =  B3LYP
SOLVENT_METHOD = PCM
$end
$pcm
theory = CPCM
$end
$solvent
dielectric 37.219
opticaldielectric 1.43
$end

--------------------------------------------------------------

             Standard Nuclear Orientation (Angstroms)
    I     Atom           X                Y                Z
 ----------------------------------------------------------------
    1      C      -1.2353400000     2.8744710000    -0.0821850000
    2      C      -2.5335630000     2.3995080000    -0.0970400000
    3      C      -2.7785500000     1.0117980000    -0.0498620000
    4      C      -0.1359130000     1.9913970000    -0.0206610000
    5      C      -0.3853490000     0.5918420000     0.0271910000
    6      C      -1.7146740000     0.1292160000     0.0113380000
    7      C       1.2238420000     2.5457340000    -0.0048570000
    8      C       2.2856740000     1.5558200000     0.0583070000
    9      C       2.0462750000     0.1966260000     0.1039190000
   10      C       0.7260140000    -0.3721920000     0.0927030000
   11      O       1.4494500000     3.7825990000    -0.0402940000
   12      O       0.5300790000    -1.6156640000     0.1345420000
   13      H      -1.0204710000     3.9364780000    -0.1173830000
   14      H      -1.8683370000    -0.9435580000     0.0488750000
   15      O       3.5472650000     2.1036170000     0.0685430000
   16      C       4.6539500000     1.2356620000     0.2254420000
   17      C       5.8903870000     2.0788630000     0.3112520000
   18      C       7.0251600000     1.8266020000    -0.3363670000
   19      H      -3.3662660000     3.0956160000    -0.1452920000
   20      H      -3.7985990000     0.6388130000    -0.0615140000
   21      H       2.8562040000    -0.5213900000     0.1469570000
   22      H       4.7267710000     0.5248620000    -0.6086110000
   23      H       4.5396210000     0.6488940000     1.1503890000
   24      H       5.8133450000     2.9381850000     0.9729690000
   25      H       7.1161770000     0.9865070000    -1.0190310000
   26      H       7.9027570000     2.4514040000    -0.2100210000
 ----------------------------------------------------------------

    9    -727.3899769342      4.24e-06  Convergence criterion met
 Total energy in the final basis set =     -727.3899769342

                    Orbital Energies (a.u.)
 --------------------------------------------------------------

 Alpha MOs
 -- Occupied --
-19.1554 -19.0798 -19.0765 -10.2298 -10.2260 -10.2256 -10.2244 -10.1789
-10.1745 -10.1724 -10.1720 -10.1711 -10.1695 -10.1693 -10.1686 -10.1586
 -1.0716  -1.0028  -1.0007  -0.8580  -0.8115  -0.7882  -0.7504  -0.7387
 -0.7061  -0.6632  -0.6202  -0.6037  -0.5708  -0.5585  -0.5278  -0.5145
 -0.4907  -0.4863  -0.4635  -0.4529  -0.4399  -0.4268  -0.4219  -0.4175
 -0.4101  -0.4079  -0.3981  -0.3821  -0.3689  -0.3576  -0.3541  -0.3414
 -0.3345  -0.3307  -0.2740  -0.2671  -0.2572  -0.2492  -0.2420  -0.2387
 -0.1510

 Beta MOs
 -- Occupied --
-19.1546 -19.0734 -19.0713 -10.2281 -10.2257 -10.2245 -10.2221 -10.1789
-10.1742 -10.1718 -10.1716 -10.1706 -10.1696 -10.1690 -10.1686 -10.1580
 -1.0695  -0.9925  -0.9904  -0.8558  -0.8085  -0.7861  -0.7483  -0.7370
 -0.7034  -0.6562  -0.6184  -0.6011  -0.5700  -0.5566  -0.5259  -0.5127
 -0.4881  -0.4845  -0.4613  -0.4519  -0.4379  -0.4246  -0.4178  -0.4117
 -0.4058  -0.4008  -0.3954  -0.3680  -0.3604  -0.3530  -0.3499  -0.3407
 -0.3320  -0.3185  -0.2729  -0.2505  -0.2478  -0.2437  -0.2367  -0.2303

          Ground-State Mulliken Net Atomic Charges

     Atom                 Charge (a.u.)    Spin (a.u.)
  --------------------------------------------------------
      1 C                     0.169785       0.066585
      2 C                    -0.444783       0.010773
      3 C                    -0.383662       0.050232
      4 C                     0.035409      -0.002111
      5 C                     0.469646       0.049415
      6 C                     0.182382       0.010543
      7 C                    -0.456789       0.139026
      8 C                    -0.534137       0.127437
      9 C                     0.351228       0.021577
     10 C                    -0.213808       0.086870
     11 O                    -0.512006       0.244688
     12 O                    -0.507848       0.189020
     13 H                     0.168655      -0.003517
     14 H                     0.165410      -0.001014
     15 O                    -0.140185       0.017610
     16 C                    -0.393444       0.001252
     17 C                     0.025974       0.000447
     18 C                    -0.498757      -0.000785
     19 H                     0.197890      -0.001366
     20 H                     0.197916      -0.003645
     21 H                     0.225922      -0.005516
     22 H                     0.172592       0.001325
     23 H                     0.184451       0.001153
     24 H                     0.209144      -0.000031
     25 H                     0.156242       0.000014
     26 H                     0.172773       0.000018
  --------------------------------------------------------
  Sum of atomic charges =    -1.000000

                    Cartesian Multipole Moments
 -----------------------------------------------------------------
    Charge (ESU x 10^10)
                -4.8032
    Dipole Moment (Debye)
         X      -3.7058      Y      -6.5110      Z       0.0602
       Tot       7.4919
    Quadrupole Moments (Debye-Ang)
        XX     -87.7769     XY     -16.4280     YY    -143.8437
        XZ       0.7825     YZ       2.6991     ZZ     -98.9394

 Total job time:  79.06s(wall), 341.00s(cpu)
        *  Thank you very much for using Q-Chem.  Have a nice day.  *
