 Q-Chem 5.4, Q-Chem, Inc., Pleasanton, CA (2021)
 Q-Chem 5.4.0 for Intel X86 EM64T Linux

User input:
--------------------------------------------------------------
$molecule
-2 1
C                 -1.3210290000      2.0247720000      0.5397610000
C                 -2.5856910000      1.3693250000      0.2461820000
C                 -2.6635770000      0.0782690000     -0.2790520000
C                 -1.5307660000     -0.7449480000     -0.5899140000
C                 -0.2745070000     -0.1146530000     -0.2952390000
C                 -0.2205210000      1.1705540000      0.2345670000
O                 -1.2427290000      3.2175770000      1.0193030000
O                 -1.6228730000     -1.9390740000     -1.0803220000
H                  0.6318340000     -0.6758080000     -0.4947340000
I                  1.7451920000      2.0215470000      0.6397630000
C                 -3.8240450000      2.2011770000      0.5515590000
C                 -4.0411270000      3.2814000000     -0.5301110000
C                 -5.1126310000      1.3932530000      0.7619260000
H                 -3.6348410000     -0.3681250000     -0.4823310000
H                 -3.6008760000      2.7451550000      1.4794810000
H                 -4.2592300000      2.8142280000     -1.4986930000
H                 -3.1347570000      3.8827810000     -0.6221950000
H                 -4.8828720000      3.9454880000     -0.2725790000
H                 -5.4276030000      0.8848990000     -0.1567970000
H                 -5.9349050000      2.0523710000      1.0716530000
H                 -4.9793260000      0.6250110000      1.5303340000
$end

$rem
BASIS  =  6-311++G(d,p)
GUI  =  2
JOB_TYPE  =  SP
METHOD  =  B3LYP
SCF_CONVERGENCE  = 8
SOLVENT_METHOD = sm12
$end

$smx
solvent dimethylformamide
charges CM5
$end

--------------------------------------------------------------

             Standard Nuclear Orientation (Angstroms)
    I     Atom           X                Y                Z
 ----------------------------------------------------------------
    1      C      -1.3210290000     2.0247720000     0.5397610000
    2      C      -2.5856910000     1.3693250000     0.2461820000
    3      C      -2.6635770000     0.0782690000    -0.2790520000
    4      C      -1.5307660000    -0.7449480000    -0.5899140000
    5      C      -0.2745070000    -0.1146530000    -0.2952390000
    6      C      -0.2205210000     1.1705540000     0.2345670000
    7      O      -1.2427290000     3.2175770000     1.0193030000
    8      O      -1.6228730000    -1.9390740000    -1.0803220000
    9      H       0.6318340000    -0.6758080000    -0.4947340000
   10      I       1.7451920000     2.0215470000     0.6397630000
   11      C      -3.8240450000     2.2011770000     0.5515590000
   12      C      -4.0411270000     3.2814000000    -0.5301110000
   13      C      -5.1126310000     1.3932530000     0.7619260000
   14      H      -3.6348410000    -0.3681250000    -0.4823310000
   15      H      -3.6008760000     2.7451550000     1.4794810000
   16      H      -4.2592300000     2.8142280000    -1.4986930000
   17      H      -3.1347570000     3.8827810000    -0.6221950000
   18      H      -4.8828720000     3.9454880000    -0.2725790000
   19      H      -5.4276030000     0.8848990000    -0.1567970000
   20      H      -5.9349050000     2.0523710000     1.0716530000
   21      H      -4.9793260000     0.6250110000     1.5303340000
 ----------------------------------------------------------------

   18   -7418.4431485462      3.81e-09  Convergence criterion met
 Total energy in the final basis set =    -7418.7383730346

                    Orbital Energies (a.u.)
 --------------------------------------------------------------

 Alpha MOs
 -- Occupied --
********-176.2952-165.6986-165.6970-165.6970 -35.7914 -31.2834 -31.2791
-31.2791 -22.9343 -22.9333 -22.9333 -22.9302 -22.9302 -19.0334 -19.0299
-10.1981 -10.1949 -10.1935 -10.1829 -10.1737 -10.1699 -10.1619 -10.1543
-10.1498  -6.3402  -4.7497  -4.7391  -4.7388  -2.0154  -2.0123  -2.0120
 -2.0028  -2.0027  -0.9517  -0.9414  -0.8229  -0.7950  -0.7275  -0.6960
 -0.6776  -0.6423  -0.6144  -0.5455  -0.5418  -0.4732  -0.4584  -0.4525
 -0.4418  -0.4141  -0.4002  -0.3861  -0.3784  -0.3732  -0.3704  -0.3531
 -0.3494  -0.3333  -0.3270  -0.3206  -0.2840  -0.2660  -0.2394  -0.2337
 -0.2114  -0.2054  -0.1370

          Ground-State Mulliken Net Atomic Charges

     Atom                 Charge (a.u.)
  ----------------------------------------
      1 C                    -1.354462
      2 C                     0.938759
      3 C                    -1.413078
      4 C                    -1.265990
      5 C                    -1.483255
      6 C                     0.065603
      7 O                    -0.216260
      8 O                    -0.408803
      9 H                    -0.141700
     10 I                     0.027324
     11 C                     1.462932
     12 C                    -0.188799
     13 C                     0.700258
     14 H                    -0.095186
     15 H                     0.068783
     16 H                     0.105975
     17 H                     0.112967
     18 H                     0.349332
     19 H                     0.183855
     20 H                     0.459298
     21 H                     0.092448
  ----------------------------------------
  Sum of atomic charges =    -2.000000

                    Cartesian Multipole Moments
 -----------------------------------------------------------------
    Charge (ESU x 10^10)
                -9.6064
    Dipole Moment (Debye)
         X       9.6312      Y      -6.9282      Z       0.0528
       Tot      11.8643
    Quadrupole Moments (Debye-Ang)
        XX    -139.7273     XY       0.5034     YY    -161.0943
        XZ      -4.6421     YZ     -19.0159     ZZ    -115.3671

 Total job time:  351.81s(wall), 2668.38s(cpu)
        *  Thank you very much for using Q-Chem.  Have a nice day.  *
