 Gaussian 16, Revision A.03,
 Gaussian 16:  ES64L-G16RevA.03 25-Dec-2016

 --------------------------------------
 #P UB3LYP/6-311++G(d,p) nosym opt freq
 --------------------------------------

 -------
 Radical
 -------
 Symbolic Z-matrix:
 Charge = -1 Multiplicity = 2

 SCF Done:  E(UB3LYP) =  -764.268819810     A.U. after   23 cycles
 SCF Done:  E(UB3LYP) =  -764.268819990     A.U. after   10 cycles
 Optimization completed.
    -- Stationary point found.
 Normal termination of Gaussian 16 at Wed Dec 27 19:54:37 2023.

 ----------------------------------------------------------------------
 #P Geom=AllCheck Guess=TCheck SCRF=Check GenChk UB3LYP/6-311++G(d,p) F
 req
 ----------------------------------------------------------------------

 Structure from the checkpoint file:  "178-rad.chk"
 -------
 Radical
 -------
 Charge = -1 Multiplicity = 2

                          Input orientation:
 ---------------------------------------------------------------------
 Center     Atomic      Atomic             Coordinates (Angstroms)
 Number     Number       Type             X           Y           Z
 ---------------------------------------------------------------------
      1          8           0       -4.706394   -0.673089    0.989396
      2          6           0       -3.463221   -0.229532    0.569193
      3          6           0       -3.429420    0.978704   -0.157284
      4          6           0       -2.215186    1.462488   -0.598093
      5          6           0       -1.005545    0.781833   -0.341942
      6          6           0        0.253934    1.342556   -0.834627
      7          8           0        0.296730    2.416830   -1.481933
      8          6           0        1.462619    0.572881   -0.524953
      9          6           0        2.714843    1.051014   -0.967111
     10          6           0        3.881233    0.361481   -0.700364
     11          6           0        3.830469   -0.847720    0.028958
     12          6           0        2.618107   -1.335826    0.472101
     13          6           0        1.410460   -0.648163    0.211690
     14          6           0        0.151722   -1.204812    0.702052
     15          8           0        0.100611   -2.283579    1.352202
     16          6           0       -1.052425   -0.436831    0.392611
     17          6           0       -2.303453   -0.921188    0.838034
     18          1           0       -4.579109   -1.498902    1.467623
     19          1           0       -4.357770    1.502993   -0.354915
     20          1           0       -2.155176    2.388124   -1.159056
     21          1           0        2.722183    1.980993   -1.524253
     22          1           0        4.835148    0.745899   -1.049265
     23          1           0        4.746514   -1.391989    0.240127
     24          1           0        2.551327   -2.260683    1.033576
     25          1           0       -2.308205   -1.853479    1.396231
 ---------------------------------------------------------------------

 SCF Done:  E(UB3LYP) =  -764.268819990     A.U. after    1 cycles

 Alpha  occ. eigenvalues --  -19.05234 -18.94642 -18.94452 -10.12209 -10.09777
 Alpha  occ. eigenvalues --  -10.09289 -10.05869 -10.05777 -10.05722 -10.05679
 Alpha  occ. eigenvalues --  -10.05419 -10.05189 -10.05087 -10.05024 -10.04928
 Alpha  occ. eigenvalues --  -10.04857 -10.04755  -0.95835  -0.87298  -0.86826
 Alpha  occ. eigenvalues --   -0.74069  -0.73155  -0.66418  -0.63464  -0.62956
 Alpha  occ. eigenvalues --   -0.61941  -0.54450  -0.53268  -0.49805  -0.48242
 Alpha  occ. eigenvalues --   -0.43968  -0.43652  -0.41571  -0.38453  -0.35662
 Alpha  occ. eigenvalues --   -0.34997  -0.33789  -0.31433  -0.31182  -0.30818
 Alpha  occ. eigenvalues --   -0.30349  -0.28880  -0.28743  -0.28294  -0.27550
 Alpha  occ. eigenvalues --   -0.26341  -0.24923  -0.23714  -0.23647  -0.22872
 Alpha  occ. eigenvalues --   -0.21308  -0.20435  -0.14268  -0.13719  -0.13389
 Alpha  occ. eigenvalues --   -0.11628  -0.11569  -0.10745  -0.01442
 Alpha virt. eigenvalues --    0.06797   0.07761   0.08321   0.09675   0.09968
 Alpha virt. eigenvalues --    0.10268   0.11498   0.11545   0.13020   0.13182
 Alpha virt. eigenvalues --    0.14759   0.15146   0.15439   0.16187   0.16996

  Beta  occ. eigenvalues --  -19.05222 -18.94098 -18.93811 -10.12175 -10.09660
  Beta  occ. eigenvalues --  -10.09123 -10.05830 -10.05739 -10.05739 -10.05608
  Beta  occ. eigenvalues --  -10.05318 -10.05162 -10.05113 -10.05018 -10.04847
  Beta  occ. eigenvalues --  -10.04748 -10.04686  -0.95805  -0.86356  -0.85714
  Beta  occ. eigenvalues --   -0.73814  -0.73038  -0.66019  -0.63263  -0.62782
  Beta  occ. eigenvalues --   -0.61764  -0.53703  -0.53142  -0.49566  -0.48134
  Beta  occ. eigenvalues --   -0.43893  -0.43432  -0.41378  -0.38304  -0.35471
  Beta  occ. eigenvalues --   -0.34803  -0.33662  -0.31339  -0.31123  -0.30443
  Beta  occ. eigenvalues --   -0.30314  -0.28609  -0.28056  -0.27681  -0.27119
  Beta  occ. eigenvalues --   -0.26127  -0.23562  -0.23343  -0.22746  -0.22532
  Beta  occ. eigenvalues --   -0.21102  -0.19388  -0.13544  -0.12524  -0.11940
  Beta  occ. eigenvalues --   -0.11023  -0.10874  -0.10185
  Beta virt. eigenvalues --    0.04545   0.07596   0.07754   0.08312   0.09666
  Beta virt. eigenvalues --    0.10260   0.10976   0.11545   0.11744   0.13012
  Beta virt. eigenvalues --    0.13172   0.14743   0.15252   0.15449   0.16319

 Mulliken charges and spin densities:
               1          2
     1  O   -0.268963   0.003042
     2  C   -0.544485   0.019194
     3  C   -0.082051   0.037659
     4  C    0.157443   0.004251
     5  C    0.225052   0.029968
     6  C   -0.682851   0.059903
     7  O   -0.369324   0.202242
     8  C    0.202321   0.058038
     9  C    0.091844   0.003115
    10  C   -0.409060   0.057776
    11  C   -0.380347   0.028037
    12  C    0.059949   0.031264
    13  C    0.279441   0.041580
    14  C   -0.702006   0.093281
    15  O   -0.381924   0.240107
    16  C    0.424372   0.063136
    17  C    0.126342   0.044809
    18  H    0.255651  -0.000154
    19  H    0.159722  -0.003267
    20  H    0.163608  -0.000524
    21  H    0.156618  -0.000228
    22  H    0.121015  -0.004567
    23  H    0.122227  -0.002633
    24  H    0.154888  -0.002128
    25  H    0.120516  -0.003901
 Sum of Mulliken charges =  -1.00000   1.00000

 Dipole moment (field-independent basis, Debye):
    X=             -0.1653    Y=             -0.9485    Z=              0.5894  Tot=              1.1289
 Quadrupole moment (field-independent basis, Debye-Ang):
   XX=           -120.5177   YY=           -121.4222   ZZ=           -110.7772
   XY=              3.0620   XZ=              0.0759   YZ=              9.3061

  Exact polarizability: 325.375  -9.446 185.247 -23.279 -53.664 128.495
 Approx polarizability: 483.495 -10.664 346.715 -35.483-117.491 222.639

                      1                      2                      3
                      A                      A                      A
 Frequencies --     51.1667               102.6746               134.9283
 Red. masses --      7.7082                 4.5186                 5.3667
 Frc consts  --      0.0119                 0.0281                 0.0576
 IR Inten    --      4.8223                 0.1353                 0.3960

                      4                      5                      6
                      A                      A                      A
 Frequencies --    160.6749               192.1096               205.4865
 Red. masses --      7.3074                 6.1493                 5.6098
 Frc consts  --      0.1112                 0.1337                 0.1396
 IR Inten    --      2.8810                 2.2378                 0.6090

                      7                      8                      9
                      A                      A                      A
 Frequencies --    280.3374               297.9795               326.9482
 Red. masses --      6.6693                 1.9824                 1.8294
 Frc consts  --      0.3088                 0.1037                 0.1152
 IR Inten    --      2.7740                42.0287                60.9367

                     10                     11                     12
                      A                      A                      A
 Frequencies --    336.7248               378.3221               395.6094
 Red. masses --      8.0584                10.6484                 6.5271
 Frc consts  --      0.5383                 0.8980                 0.6019
 IR Inten    --      0.5813                 5.6436                 7.3066

                     13                     14                     15
                      A                      A                      A
 Frequencies --    417.6613               444.0699               449.2364
 Red. masses --      3.9002                 4.8912                 5.5888
 Frc consts  --      0.4009                 0.5683                 0.6645
 IR Inten    --      4.0813                 0.9713                14.7850

                     16                     17                     18
                      A                      A                      A
 Frequencies --    463.2313               489.4651               546.5279
 Red. masses --      3.0584                12.4269                 4.4789
 Frc consts  --      0.3867                 1.7541                 0.7882
 IR Inten    --      0.6696                 0.4501                 3.7013

                     19                     20                     21
                      A                      A                      A
 Frequencies --    578.8875               643.7778               647.9124
 Red. masses --      6.9666                 6.7786                 3.8473
 Frc consts  --      1.3755                 1.6552                 0.9516
 IR Inten    --     17.2467                 3.0191                 6.9115

                     22                     23                     24
                      A                      A                      A
 Frequencies --    670.1019               702.4776               706.2484
 Red. masses --      6.7619                 6.3831                 2.3965
 Frc consts  --      1.7889                 1.8559                 0.7043
 IR Inten    --      2.1153                 0.5282                70.7556

                     25                     26                     27
                      A                      A                      A
 Frequencies --    723.9977               755.6103               777.3626
 Red. masses --      4.5008                 7.1132                 1.8041
 Frc consts  --      1.3900                 2.3928                 0.6423
 IR Inten    --      0.7108                19.3093                10.1436

                     28                     29                     30
                      A                      A                      A
 Frequencies --    791.2272               821.9196               864.8222
 Red. masses --      2.4284                 2.0001                 6.5808
 Frc consts  --      0.8957                 0.7961                 2.8999
 IR Inten    --      5.3626                18.2710                42.3962

                     31                     32                     33
                      A                      A                      A
 Frequencies --    866.8188               882.8465               937.0852
 Red. masses --      1.5158                 1.5003                 6.6896
 Frc consts  --      0.6710                 0.6890                 3.4611
 IR Inten    --      0.2693                20.9904                16.3392

                     34                     35                     36
                      A                      A                      A
 Frequencies --    979.1183               982.5387               983.6292
 Red. masses --      1.3119                 1.2835                 1.3349
 Frc consts  --      0.7410                 0.7301                 0.7609
 IR Inten    --      0.1388                 0.9304                 3.2457

                     37                     38                     39
                      A                      A                      A
 Frequencies --    992.9373              1036.5828              1102.5341
 Red. masses --      3.2286                 1.9835                 2.1013
 Frc consts  --      1.8754                 1.2557                 1.5050
 IR Inten    --      3.4887                26.2375                12.5945

                     40                     41                     42
                      A                      A                      A
 Frequencies --   1109.2990              1141.3681              1153.4900
 Red. masses --      1.8979                 1.6432                 1.4985
 Frc consts  --      1.3760                 1.2612                 1.1748
 IR Inten    --      3.5519                35.1957                12.9073

                     43                     44                     45
                      A                      A                      A
 Frequencies --   1178.6345              1192.3880              1219.3456
 Red. masses --      1.6676                 2.1902                 1.9085
 Frc consts  --      1.3649                 1.8347                 1.6718
 IR Inten    --    193.0720                24.2482               100.9196

                     46                     47                     48
                      A                      A                      A
 Frequencies --   1223.4844              1248.9699              1279.4487
 Red. masses --      2.2963                 2.3185                 2.4802
 Frc consts  --      2.0253                 2.1309                 2.3921
 IR Inten    --     68.8199                36.4123                34.2833

                     49                     50                     51
                      A                      A                      A
 Frequencies --   1344.9315              1358.2247              1372.4010
 Red. masses --      2.1528                10.7522                 7.7924
 Frc consts  --      2.2943                11.6867                 8.6473
 IR Inten    --     11.2151                17.0018                 0.9722

                     52                     53                     54
                      A                      A                      A
 Frequencies --   1424.2229              1467.0787              1484.0781
 Red. masses --      2.8974                 2.5469                 3.6564
 Frc consts  --      3.4626                 3.2298                 4.7447
 IR Inten    --    304.1809               114.9616                13.5189

                     55                     56                     57
                      A                      A                      A
 Frequencies --   1493.4065              1525.4799              1541.8481
 Red. masses --      3.3041                 5.3757                 7.3064
 Frc consts  --      4.3417                 7.3706                10.2337
 IR Inten    --     35.6848               522.9121               120.9829

                     58                     59                     60
                      A                      A                      A
 Frequencies --   1571.5381              1615.0219              1621.5010
 Red. masses --      5.7891                 7.9727                 5.7786
 Frc consts  --      8.4238                12.2522                 8.9517
 IR Inten    --     37.7369                34.1049                84.5700

                     61                     62                     63
                      A                      A                      A
 Frequencies --   1640.7302              3132.8298              3149.7013
 Red. masses --      7.2145                 1.0846                 1.0894
 Frc consts  --     11.4428                 6.2717                 6.3675
 IR Inten    --    140.7490                18.7090                25.9122

                     64                     65                     66
                      A                      A                      A
 Frequencies --   3152.1102              3167.3539              3180.8387
 Red. masses --      1.0910                 1.0870                 1.0914
 Frc consts  --      6.3865                 6.4250                 6.5058
 IR Inten    --     49.0318                 7.8486                11.6400

                     67                     68                     69
                      A                      A                      A
 Frequencies --   3183.4830              3186.5555              3831.2367
 Red. masses --      1.0928                 1.0936                 1.0657
 Frc consts  --      6.5255                 6.5425                 9.2165
 IR Inten    --     35.1820                17.4756                41.4131

 - Thermochemistry -
 -------------------
 Temperature   298.150 Kelvin.  Pressure   1.00000 Atm.
 Atom     1 has atomic number  8 and mass  15.99491

 Molecular mass:   224.04734 amu.
 Principal axes and moments of inertia in atomic units:
                           1         2         3
     Eigenvalues --  1737.595155336.369767073.96485
           X            0.99198  -0.06812   0.10646
           Y            0.00430   0.86003   0.51023
           Z           -0.12632  -0.50568   0.85342
 This molecule is an asymmetric top.
 Rotational symmetry number  1.
 Warning -- assumption of classical behavior for rotation
           may cause significant error
 Rotational temperatures (Kelvin)      0.04985     0.01623     0.01224
 Rotational constants (GHZ):           1.03864     0.33820     0.25512
 Zero-point vibrational energy     474394.6 (Joules/Mol)
                                  113.38304 (Kcal/Mol)
 Warning -- explicit consideration of  19 degrees of freedom as
           vibrations may cause significant error
 Vibrational temperatures:     73.62   147.73   194.13   231.18   276.40
          (Kelvin)            295.65   403.34   428.73   470.41   484.47
                              544.32   569.19   600.92   638.92   646.35
                              666.49   704.23   786.33   832.89   926.25
                              932.20   964.13  1010.71  1016.13  1041.67
                             1087.15  1118.45  1138.40  1182.56  1244.29
                             1247.16  1270.22  1348.26  1408.73  1413.65
                             1415.22  1428.62  1491.41  1586.30  1596.03
                             1642.17  1659.61  1695.79  1715.58  1754.37
                             1760.32  1796.99  1840.84  1935.06  1954.18
                             1974.58  2049.14  2110.80  2135.26  2148.68
                             2194.83  2218.38  2261.09  2323.66  2332.98
                             2360.64  4507.44  4531.72  4535.18  4557.12
                             4576.52  4580.32  4584.74  5512.30

 Zero-point correction=                           0.180687 (Hartree/Particle)
 Thermal correction to Energy=                    0.193175
 Thermal correction to Enthalpy=                  0.194119
 Thermal correction to Gibbs Free Energy=         0.141400
 Sum of electronic and zero-point Energies=           -764.088133
 Sum of electronic and thermal Energies=              -764.075645
 Sum of electronic and thermal Enthalpies=            -764.074701
 Sum of electronic and thermal Free Energies=         -764.127420

                     E (Thermal)             CV                S
                      KCal/Mol        Cal/Mol-Kelvin    Cal/Mol-Kelvin
 Total                  121.219             51.071            110.957
 Electronic               0.000              0.000              1.377
 Translational            0.889              2.981             42.123
 Rotational               0.889              2.981             32.550
 Vibrational            119.442             45.109             34.907
 Vibration     1          0.595              1.977              4.772
 Vibration     2          0.605              1.947              3.403
 Vibration     3          0.613              1.918              2.875
 Vibration     4          0.622              1.891              2.542
 Vibration     5          0.634              1.851              2.207
 Vibration     6          0.640              1.832              2.083
 Vibration     7          0.680              1.710              1.532
 Vibration     8          0.691              1.677              1.428
 Vibration     9          0.711              1.622              1.275
 Vibration    10          0.717              1.602              1.228
 Vibration    11          0.749              1.516              1.046
 Vibration    12          0.762              1.480              0.979
 Vibration    13          0.781              1.432              0.900
 Vibration    14          0.804              1.374              0.814
 Vibration    15          0.808              1.363              0.798
 Vibration    16          0.821              1.332              0.757
 Vibration    17          0.845              1.273              0.685
 Vibration    18          0.902              1.147              0.551
 Vibration    19          0.935              1.077              0.487

 Optimization completed.
    -- Stationary point found.
 Normal termination of Gaussian 16 at Wed Dec 27 20:35:38 2023.
