 Gaussian 16, Revision A.03,
 Gaussian 16:  ES64L-G16RevA.03 25-Dec-2016

 ----------------------------------------------------------------
 #P UB3LYP/6-311++G(d,p) SCRF=(PCM,Solvent=n,n-DiMethylFormamide)
 ----------------------------------------------------------------

 ------------------
 Radical PCM in DMF
 ------------------
 Symbolic Z-matrix:
 Charge = -1 Multiplicity = 2

                         Standard orientation:
 ---------------------------------------------------------------------
 Center     Atomic      Atomic             Coordinates (Angstroms)
 Number     Number       Type             X           Y           Z
 ---------------------------------------------------------------------
      1          8           0       -4.657004   -0.780167   -0.000088
      2          6           0       -3.370164   -0.267492   -0.000033
      3          6           0       -3.243381    1.137026    0.000055
      4          6           0       -1.982596    1.696620   -0.000032
      5          6           0       -0.815837    0.902385    0.000060
      6          6           0        0.496477    1.551436   -0.000225
      7          8           0        0.622018    2.800091    0.000035
      8          6           0        1.655418    0.653620    0.000022
      9          6           0        2.954052    1.206548   -0.000055
     10          6           0        4.076557    0.402149   -0.000055
     11          6           0        3.932587   -1.003528   -0.000013
     12          6           0        2.673359   -1.568142    0.000060
     13          6           0        1.509125   -0.765856    0.000120
     14          6           0        0.197844   -1.410275    0.000580
     15          8           0        0.063689   -2.663689   -0.000430
     16          6           0       -0.956627   -0.514331    0.000151
     17          6           0       -2.254495   -1.074343   -0.000034
     18          1           0       -4.592162   -1.740721    0.000236
     19          1           0       -4.138687    1.748744    0.000069
     20          1           0       -1.851070    2.772623   -0.000092
     21          1           0        3.032853    2.287803   -0.000246
     22          1           0        5.067377    0.846829   -0.000118
     23          1           0        4.813952   -1.638474    0.000022
     24          1           0        2.535053   -2.643292    0.000234
     25          1           0       -2.330865   -2.158289    0.000153
 ---------------------------------------------------------------------

 SCF Done:  E(UB3LYP) =  -764.346521197     A.U. after   18 cycles

 The electronic state is 2-A.
 Alpha  occ. eigenvalues --  -19.15749 -19.07609 -19.07423 -10.23791 -10.22551
 Alpha  occ. eigenvalues --  -10.22092 -10.17645 -10.17566 -10.17394 -10.17259
 Alpha  occ. eigenvalues --  -10.17232 -10.17178 -10.17164 -10.16988 -10.16964
 Alpha  occ. eigenvalues --  -10.16902 -10.16895  -1.06372  -1.00338  -0.99873
 Alpha  occ. eigenvalues --   -0.86158  -0.85070  -0.78398  -0.75399  -0.74958
 Alpha  occ. eigenvalues --   -0.73766  -0.66678  -0.64864  -0.61597  -0.59919
 Alpha  occ. eigenvalues --   -0.55761  -0.55346  -0.53380  -0.50094  -0.47699
 Alpha  occ. eigenvalues --   -0.46664  -0.45654  -0.43107  -0.42873  -0.42701
 Alpha  occ. eigenvalues --   -0.42263  -0.41421  -0.40770  -0.40636  -0.39654
 Alpha  occ. eigenvalues --   -0.37997  -0.37811  -0.35659  -0.35461  -0.34685
 Alpha  occ. eigenvalues --   -0.33444  -0.32505  -0.26581  -0.25793  -0.25555
 Alpha  occ. eigenvalues --   -0.24648  -0.23725  -0.23435  -0.14079
 Alpha virt. eigenvalues --   -0.05331  -0.01831  -0.00409  -0.00325   0.00281
 Alpha virt. eigenvalues --    0.01107   0.01941   0.02311   0.04148   0.04255
 Alpha virt. eigenvalues --    0.04450   0.04521   0.05233   0.06422   0.06482

  Beta  occ. eigenvalues --  -19.15735 -19.07107 -19.06837 -10.23757 -10.22393
  Beta  occ. eigenvalues --  -10.21882 -10.17575 -10.17561 -10.17357 -10.17224
  Beta  occ. eigenvalues --  -10.17164 -10.17113 -10.17071 -10.16972 -10.16933
  Beta  occ. eigenvalues --  -10.16884 -10.16855  -1.06336  -0.99450  -0.98831
  Beta  occ. eigenvalues --   -0.85895  -0.84955  -0.78012  -0.75155  -0.74780
  Beta  occ. eigenvalues --   -0.73601  -0.65913  -0.64722  -0.61354  -0.59817
  Beta  occ. eigenvalues --   -0.55517  -0.55259  -0.53176  -0.49939  -0.47440
  Beta  occ. eigenvalues --   -0.46499  -0.45549  -0.43030  -0.42779  -0.42214
  Beta  occ. eigenvalues --   -0.41920  -0.40998  -0.40401  -0.39847  -0.39492
  Beta  occ. eigenvalues --   -0.37703  -0.35714  -0.35371  -0.35126  -0.34573
  Beta  occ. eigenvalues --   -0.33288  -0.31457  -0.25532  -0.24682  -0.24520
  Beta  occ. eigenvalues --   -0.24150  -0.23217  -0.22815
  Beta virt. eigenvalues --   -0.08168  -0.04414  -0.00854  -0.00396  -0.00039
  Beta virt. eigenvalues --    0.00281   0.01110   0.01947   0.02317   0.04158
  Beta virt. eigenvalues --    0.04453   0.04475   0.04520   0.05656   0.06477

 Mulliken charges and spin densities:
               1          2
     1  O   -0.291340   0.003991
     2  C   -0.619615   0.020167
     3  C   -0.172622   0.031528
     4  C    0.132101   0.013922
     5  C    0.187781   0.017632
     6  C   -0.512777   0.089217
     7  O   -0.459788   0.185732
     8  C    0.155367   0.046395
     9  C    0.094694   0.013502
    10  C   -0.467946   0.053889
    11  C   -0.433841   0.024796
    12  C    0.067318   0.042019
    13  C    0.225107   0.027717
    14  C   -0.550214   0.125549
    15  O   -0.472486   0.218786
    16  C    0.403848   0.046370
    17  C    0.195386   0.055970
    18  H    0.300901  -0.000176
    19  H    0.207684  -0.002769
    20  H    0.172988  -0.000805
    21  H    0.165211  -0.000520
    22  H    0.179177  -0.004140
    23  H    0.180590  -0.002341
    24  H    0.164065  -0.002382
    25  H    0.148411  -0.004047
 Sum of Mulliken charges =  -1.00000   1.00000

 Dipole moment (field-independent basis, Debye):
    X=             -0.9166    Y=             -1.4314    Z=              0.0019  Tot=              1.6998
 Quadrupole moment (field-independent basis, Debye-Ang):
   XX=           -105.2987   YY=           -129.0038   ZZ=           -105.1417
   XY=              1.6259   XZ=             -0.0037   YZ=             -0.0071

 Normal termination of Gaussian 16 at Sun Jan 14 01:20:00 2024.
