 Q-Chem 5.4, Q-Chem, Inc., Pleasanton, CA (2021)
 Q-Chem 5.4.0 for Intel X86 EM64T Linux

User input:
--------------------------------------------------------------
$molecule
-2 1
C                 -0.4737080000      3.8986440000      0.3121090000
C                  0.5628580000      2.9742100000      0.3445600000
C                  0.3865790000      1.6646040000     -0.1656720000
C                 -0.8684600000      1.3296630000     -0.7035710000
C                  1.5132370000      0.7242230000     -0.1556390000
C                  1.5006820000     -0.7083450000      0.0967180000
C                  2.8428230000      1.0408130000     -0.3583370000
C                  2.8500980000     -1.1719450000      0.0579940000
C                  0.4876770000     -1.6334900000      0.3947480000
C                  0.8214100000     -2.9652490000      0.6193560000
C                  2.1594360000     -3.4026430000      0.5471750000
C                  3.1895600000     -2.5121960000      0.2698910000
N                  3.6476970000     -0.0866850000     -0.2031780000
H                 -1.0259430000      0.3475170000     -1.1425320000
H                  3.2870360000      1.9954280000     -0.5933470000
H                 -0.5416820000     -1.2995830000      0.4496570000
H                  0.0397760000     -3.6826220000      0.8534130000
H                  2.3940880000     -4.4494190000      0.7188270000
H                  4.2246830000     -2.8429400000      0.2329260000
H                  4.6453510000     -0.1195600000     -0.3507550000
C                 -1.7781470000      3.6207370000     -0.2272810000
C                 -1.9874080000      2.2231580000     -0.7770890000
O                 -2.6985090000      4.4858410000     -0.2406350000
O                 -3.0966730000      1.8787840000     -1.2805940000
H                 -0.3320100000      4.8953010000      0.7287870000
H                  1.5144790000      3.2424540000      0.7991690000
$end

$rem
BASIS  =  6-311++G(d,p)
GUI  =  2
JOB_TYPE  =  SP
METHOD  =  B3LYP
SCF_CONVERGENCE  = 5
SOLVENT_METHOD = sm12
$end

$smx
solvent dimethylformamide
charges CM5
$end

--------------------------------------------------------------

             Standard Nuclear Orientation (Angstroms)
    I     Atom           X                Y                Z
 ----------------------------------------------------------------
    1      C      -0.4737080000     3.8986440000     0.3121090000
    2      C       0.5628580000     2.9742100000     0.3445600000
    3      C       0.3865790000     1.6646040000    -0.1656720000
    4      C      -0.8684600000     1.3296630000    -0.7035710000
    5      C       1.5132370000     0.7242230000    -0.1556390000
    6      C       1.5006820000    -0.7083450000     0.0967180000
    7      C       2.8428230000     1.0408130000    -0.3583370000
    8      C       2.8500980000    -1.1719450000     0.0579940000
    9      C       0.4876770000    -1.6334900000     0.3947480000
   10      C       0.8214100000    -2.9652490000     0.6193560000
   11      C       2.1594360000    -3.4026430000     0.5471750000
   12      C       3.1895600000    -2.5121960000     0.2698910000
   13      N       3.6476970000    -0.0866850000    -0.2031780000
   14      H      -1.0259430000     0.3475170000    -1.1425320000
   15      H       3.2870360000     1.9954280000    -0.5933470000
   16      H      -0.5416820000    -1.2995830000     0.4496570000
   17      H       0.0397760000    -3.6826220000     0.8534130000
   18      H       2.3940880000    -4.4494190000     0.7188270000
   19      H       4.2246830000    -2.8429400000     0.2329260000
   20      H       4.6453510000    -0.1195600000    -0.3507550000
   21      C      -1.7781470000     3.6207370000    -0.2272810000
   22      C      -1.9874080000     2.2231580000    -0.7770890000
   23      O      -2.6985090000     4.4858410000    -0.2406350000
   24      O      -3.0966730000     1.8787840000    -1.2805940000
   25      H      -0.3320100000     4.8953010000     0.7287870000
   26      H       1.5144790000     3.2424540000     0.7991690000
 ----------------------------------------------------------------

   11    -744.2225176269      4.95e-06  Convergence criterion met
 Total energy in the final basis set =     -744.5531044285

                    Orbital Energies (a.u.)
 --------------------------------------------------------------

 Alpha MOs
 -- Occupied --
-19.0286 -19.0262 -14.3654 -10.2169 -10.2060 -10.1885 -10.1840 -10.1826
-10.1823 -10.1821 -10.1816 -10.1790 -10.1771 -10.1543 -10.1481 -10.1356
-10.1312  -0.9889  -0.9595  -0.9332  -0.8539  -0.8188  -0.7814  -0.7478
 -0.7323  -0.7032  -0.6668  -0.6342  -0.6042  -0.5909  -0.5639  -0.5507
 -0.5270  -0.4948  -0.4841  -0.4575  -0.4475  -0.4423  -0.4392  -0.4288
 -0.4200  -0.4044  -0.3885  -0.3756  -0.3711  -0.3671  -0.3564  -0.3496
 -0.3418  -0.3316  -0.3105  -0.2959  -0.2795  -0.2393  -0.2252  -0.2126
 -0.1939  -0.1823  -0.1281

          Ground-State Mulliken Net Atomic Charges

     Atom                 Charge (a.u.)
  ----------------------------------------
      1 C                    -0.569429
      2 C                    -2.218360
      3 C                     2.028794
      4 C                    -3.329232
      5 C                    -3.153949
      6 C                    -0.023666
      7 C                     1.881549
      8 C                     2.690232
      9 C                    -3.018875
     10 C                     0.488955
     11 C                     1.841349
     12 C                     3.004858
     13 N                     0.200991
     14 H                    -0.332097
     15 H                     0.513664
     16 H                     0.078316
     17 H                     0.348963
     18 H                     0.454797
     19 H                     0.398603
     20 H                     0.638064
     21 C                    -2.119305
     22 C                    -0.915854
     23 O                    -0.367335
     24 O                    -0.411789
     25 H                    -0.097630
     26 H                    -0.011614
  ----------------------------------------
  Sum of atomic charges =    -2.000000

                    Cartesian Multipole Moments
 -----------------------------------------------------------------
    Charge (ESU x 10^10)
                -9.6064
    Dipole Moment (Debye)
         X      18.6313      Y     -25.9956      Z       3.9414
       Tot      32.2247
    Quadrupole Moments (Debye-Ang)
        XX    -146.8047     XY      57.1838     YY    -211.4118
        XZ     -17.9833     YZ       7.0104     ZZ    -121.2551

 Total job time:  312.00s(wall), 2394.56s(cpu)
        *  Thank you very much for using Q-Chem.  Have a nice day.  *
