 Gaussian 16, Revision A.03,
 Gaussian 16:  ES64L-G16RevA.03 25-Dec-2016

 ----------------------------------------------------------------------
 #P UB3LYP/6-311++G(d,p) nosym opt freq SCRF=(PCM,Solvent=n,n-DiMethylF
 ormamide)
 ----------------------------------------------------------------------

 -------
 Reduced
 -------
 Symbolic Z-matrix:
 Charge = -2 Multiplicity = 1

 SCF Done:  E(UB3LYP) =  -10676.0181933     A.U. after   15 cycles
 SCF Done:  E(UB3LYP) =  -10676.0187344     A.U. after   11 cycles
 SCF Done:  E(UB3LYP) =  -10676.0188655     A.U. after   11 cycles
 SCF Done:  E(UB3LYP) =  -10676.0188674     A.U. after    9 cycles
 Optimization completed.
    -- Stationary point found.
 Normal termination of Gaussian 16 at Sat Feb 10 10:13:44 2024.

 ----------------------------------------------------------------------
 #P Geom=AllCheck Guess=TCheck SCRF=Check GenChk UB3LYP/6-311++G(d,p) F
 req
 ----------------------------------------------------------------------

 Structure from the checkpoint file:  "030-an.chk"
 -------
 Reduced
 -------
 Charge = -2 Multiplicity = 1

                          Input orientation:
 ---------------------------------------------------------------------
 Center     Atomic      Atomic             Coordinates (Angstroms)
 Number     Number       Type             X           Y           Z
 ---------------------------------------------------------------------
      1         35           0       -3.112088   -1.132256    0.016386
      2          6           0       -1.297750   -0.462711    0.006397
      3          6           0       -1.033132    0.909544    0.008413
      4         35           0       -2.465167    2.208128    0.019535
      5          6           0        0.283804    1.476251    0.002473
      6          8           0        0.523025    2.737522    0.004723
      7          6           0        1.297748    0.462710   -0.006390
      8          6           0        1.033131   -0.909545   -0.008406
      9         35           0        2.465171   -2.208126   -0.019548
     10          6           0       -0.283802   -1.476254   -0.002454
     11          8           0       -0.523027   -2.737523   -0.004729
     12         35           0        3.112087    1.132261   -0.016400
 ---------------------------------------------------------------------

 SCF Done:  E(UB3LYP) =  -10676.0188674     A.U. after    1 cycles

 Alpha  occ. eigenvalues -- -482.81399-482.81399-482.81382-482.81382 -62.46675
 Alpha  occ. eigenvalues --  -62.46675 -62.46659 -62.46659 -56.28697 -56.28697
 Alpha  occ. eigenvalues --  -56.28681 -56.28681 -56.28344 -56.28344 -56.28328
 Alpha  occ. eigenvalues --  -56.28328 -56.28309 -56.28309 -56.28292 -56.28292
 Alpha  occ. eigenvalues --  -19.03258 -19.03257 -10.20606 -10.20604 -10.20310
 Alpha  occ. eigenvalues --  -10.20305 -10.20254 -10.20253  -8.67639  -8.67638
 Alpha  occ. eigenvalues --   -8.67623  -8.67623  -6.50728  -6.50728  -6.50713
 Alpha  occ. eigenvalues --   -6.50713  -6.49553  -6.49553  -6.49538  -6.49538
 Alpha  occ. eigenvalues --   -6.49450  -6.49450  -6.49434  -6.49434  -2.61832
 Alpha  occ. eigenvalues --   -2.61831  -2.61817  -2.61816  -2.61513  -2.61513
 Alpha  occ. eigenvalues --   -2.61498  -2.61498  -2.61435  -2.61435  -2.61419
 Alpha  occ. eigenvalues --   -2.61419  -2.60499  -2.60499  -2.60499  -2.60498
 Alpha  occ. eigenvalues --   -2.60484  -2.60484  -2.60483  -2.60483  -0.95819
 Alpha  occ. eigenvalues --   -0.95326  -0.84143  -0.81668  -0.77419  -0.77343
 Alpha  occ. eigenvalues --   -0.74912  -0.67417  -0.66448  -0.55578  -0.54843
 Alpha  occ. eigenvalues --   -0.48199  -0.43649  -0.40265  -0.40253  -0.38492
 Alpha  occ. eigenvalues --   -0.37781  -0.36135  -0.34675  -0.34632  -0.33433
 Alpha  occ. eigenvalues --   -0.29598  -0.29296  -0.29157  -0.28809  -0.28011
 Alpha  occ. eigenvalues --   -0.26369  -0.26360  -0.23983  -0.21762  -0.21683
 Alpha  occ. eigenvalues --   -0.21036  -0.14115
 Alpha virt. eigenvalues --   -0.03705  -0.00710  -0.00531   0.00745   0.00863
 Alpha virt. eigenvalues --    0.02467   0.02952   0.03193   0.04028   0.04631
 Alpha virt. eigenvalues --    0.05305   0.05394   0.05585   0.05758   0.06562

  Beta  occ. eigenvalues -- -482.81399-482.81399-482.81382-482.81382 -62.46675
  Beta  occ. eigenvalues --  -62.46675 -62.46659 -62.46659 -56.28697 -56.28697
  Beta  occ. eigenvalues --  -56.28681 -56.28681 -56.28344 -56.28344 -56.28328
  Beta  occ. eigenvalues --  -56.28328 -56.28309 -56.28309 -56.28292 -56.28292
  Beta  occ. eigenvalues --  -19.03258 -19.03257 -10.20606 -10.20604 -10.20310
  Beta  occ. eigenvalues --  -10.20305 -10.20254 -10.20253  -8.67639  -8.67638
  Beta  occ. eigenvalues --   -8.67623  -8.67623  -6.50728  -6.50728  -6.50713
  Beta  occ. eigenvalues --   -6.50713  -6.49553  -6.49553  -6.49538  -6.49538
  Beta  occ. eigenvalues --   -6.49450  -6.49450  -6.49434  -6.49434  -2.61832
  Beta  occ. eigenvalues --   -2.61831  -2.61817  -2.61816  -2.61513  -2.61513
  Beta  occ. eigenvalues --   -2.61498  -2.61498  -2.61435  -2.61435  -2.61419
  Beta  occ. eigenvalues --   -2.61419  -2.60499  -2.60499  -2.60499  -2.60498
  Beta  occ. eigenvalues --   -2.60484  -2.60484  -2.60483  -2.60483  -0.95819
  Beta  occ. eigenvalues --   -0.95326  -0.84143  -0.81668  -0.77419  -0.77343
  Beta  occ. eigenvalues --   -0.74912  -0.67417  -0.66448  -0.55578  -0.54843
  Beta  occ. eigenvalues --   -0.48199  -0.43649  -0.40265  -0.40253  -0.38492
  Beta  occ. eigenvalues --   -0.37781  -0.36135  -0.34675  -0.34632  -0.33433
  Beta  occ. eigenvalues --   -0.29598  -0.29296  -0.29157  -0.28809  -0.28011
  Beta  occ. eigenvalues --   -0.26369  -0.26360  -0.23983  -0.21762  -0.21683
  Beta  occ. eigenvalues --   -0.21036  -0.14115
  Beta virt. eigenvalues --   -0.03705  -0.00710  -0.00531   0.00745   0.00863
  Beta virt. eigenvalues --    0.02467   0.02952   0.03193   0.04028   0.04631
  Beta virt. eigenvalues --    0.05305   0.05394   0.05585   0.05758   0.06562

 Mulliken charges and spin densities:
               1          2
     1  Br  -0.170891   0.000000
     2  C    0.319882  -0.000000
     3  C    0.320407   0.000000
     4  Br  -0.169807   0.000000
     5  C   -0.738804   0.000000
     6  O   -0.560786   0.000000
     7  C    0.319875   0.000000
     8  C    0.320413  -0.000000
     9  Br  -0.169809  -0.000000
    10  C   -0.738801  -0.000000
    11  O   -0.560786   0.000000
    12  Br  -0.170892   0.000000
 Sum of Mulliken charges =  -2.00000  -0.00000

 Dipole moment (field-independent basis, Debye):
    X=             -0.0000    Y=             -0.0000    Z=              0.0000  Tot=              0.0000
 Quadrupole moment (field-independent basis, Debye-Ang):
   XX=           -153.2468   YY=           -187.6752   ZZ=           -126.9176
   XY=             -6.8401   XZ=              0.1362   YZ=             -0.1272

  Exact polarizability: 346.384  -9.135 301.286  -1.242   0.448 141.708
 Approx polarizability: 361.120  -4.157 341.199  -1.214   0.496 158.161

                      1                      2                      3
                      A                      A                      A
 Frequencies --     30.4387                37.5387                53.3411
 Red. masses --     75.1496                17.6704                18.9243
 Frc consts  --      0.0410                 0.0147                 0.0317
 IR Inten    --      0.2345                22.4512                 0.0000

                      4                      5                      6
                      A                      A                      A
 Frequencies --    122.9978               128.9260               134.1578
 Red. masses --     77.8071                39.2017                64.4104
 Frc consts  --      0.6935                 0.3839                 0.6830
 IR Inten    --      0.0000                 9.1598                 4.3097

                      7                      8                      9
                      A                      A                      A
 Frequencies --    167.4829               189.4095               208.0913
 Red. masses --     13.4251                60.6264                70.6225
 Frc consts  --      0.2219                 1.2815                 1.8018
 IR Inten    --      4.3154                 0.0000                 0.0000

                     10                     11                     12
                      A                      A                      A
 Frequencies --    260.5037               283.2531               294.8314
 Red. masses --     16.9480                12.5663                12.2695
 Frc consts  --      0.6776                 0.5940                 0.6284
 IR Inten    --      0.0000                 0.0000                 0.0000

                     13                     14                     15
                      A                      A                      A
 Frequencies --    297.3559               312.6464               484.0323
 Red. masses --     18.6290                20.8513                14.0449
 Frc consts  --      0.9705                 1.2009                 1.9387
 IR Inten    --      3.3697                 4.2482                 0.0000

                     16                     17                     18
                      A                      A                      A
 Frequencies --    505.4876               573.5826               686.0312
 Red. masses --     12.0260                13.7169                12.6042
 Frc consts  --      1.8105                 2.6589                 3.4950
 IR Inten    --      0.0045               112.4311                 0.0000

                     19                     20                     21
                      A                      A                      A
 Frequencies --    695.9719               703.3777               745.3905
 Red. masses --     12.2364                12.1487                12.3195
 Frc consts  --      3.4921                 3.5413                 4.0328
 IR Inten    --     13.5826                 0.0000                 0.0000

                     22                     23                     24
                      A                      A                      A
 Frequencies --    834.5842               941.1638              1092.2590
 Red. masses --     12.9642                12.5111                12.0059
 Frc consts  --      5.3203                 6.5294                 8.4391
 IR Inten    --    565.5537                 0.0000               655.3505

                     25                     26                     27
                      A                      A                      A
 Frequencies --   1114.0584              1337.6596              1364.1765
 Red. masses --     12.4096                12.0395                12.0119
 Frc consts  --      9.0745                12.6925                13.1705
 IR Inten    --     75.7904                51.1196                 0.0000

                     28                     29                     30
                      A                      A                      A
 Frequencies --   1386.9405              1414.0378              1560.2742
 Red. masses --     12.9154                12.6751                12.1380
 Frc consts  --     14.6378                14.9322                17.4100
 IR Inten    --      0.0000              2238.9238                 0.0000

 - Thermochemistry -
 -------------------
 Temperature   298.150 Kelvin.  Pressure   1.00000 Atm.
 Atom     1 has atomic number 35 and mass  78.91834

 Molecular mass:   419.66317 amu.
 Principal axes and moments of inertia in atomic units:
                           1         2         3
     Eigenvalues --  4427.300319334.27267**********
           X            0.98191   0.18923   0.00600
           Y           -0.18922   0.98193  -0.00230
           Z           -0.00632   0.00112   0.99998
 This molecule is an asymmetric top.
 Rotational symmetry number  1.
 Warning -- assumption of classical behavior for rotation
           may cause significant error
 Rotational temperatures (Kelvin)      0.01956     0.00928     0.00629
 Rotational constants (GHZ):           0.40764     0.19335     0.13114
 Zero-point vibrational energy     107424.7 (Joules/Mol)
                                   25.67511 (Kcal/Mol)
 Warning -- explicit consideration of  17 degrees of freedom as
           vibrations may cause significant error
 Vibrational temperatures:     43.79    54.01    76.75   176.97   185.50
          (Kelvin)            193.02   240.97   272.52   299.40   374.81
                              407.54   424.20   427.83   449.83   696.41
                              727.28   825.26   987.05  1001.35  1012.00
                             1072.45  1200.78  1354.12  1571.52  1602.88
                             1924.59  1962.75  1995.50  2034.48  2244.89

 Zero-point correction=                           0.040916 (Hartree/Particle)
 Thermal correction to Energy=                    0.053537
 Thermal correction to Enthalpy=                  0.054482
 Thermal correction to Gibbs Free Energy=        -0.003089
 Sum of electronic and zero-point Energies=         -10675.977951
 Sum of electronic and thermal Energies=            -10675.965330
 Sum of electronic and thermal Enthalpies=          -10675.964386
 Sum of electronic and thermal Free Energies=       -10676.021956

                     E (Thermal)             CV                S
                      KCal/Mol        Cal/Mol-Kelvin    Cal/Mol-Kelvin
 Total                   33.595             40.694            121.167
 Electronic               0.000              0.000              0.000
 Translational            0.889              2.981             43.993
 Rotational               0.889              2.981             34.696
 Vibrational             31.818             34.733             42.477
 Vibration     1          0.594              1.984              5.801
 Vibration     2          0.594              1.982              5.385
 Vibration     3          0.596              1.976              4.690
 Vibration     4          0.610              1.930              3.053
 Vibration     5          0.611              1.924              2.962
 Vibration     6          0.613              1.919              2.886
 Vibration     7          0.624              1.882              2.464
 Vibration     8          0.633              1.854              2.234
 Vibration     9          0.641              1.828              2.060
 Vibration    10          0.669              1.745              1.658
 Vibration    11          0.682              1.705              1.514
 Vibration    12          0.689              1.683              1.446
 Vibration    13          0.691              1.679              1.432
 Vibration    14          0.701              1.650              1.348
 Vibration    15          0.840              1.285              0.699
 Vibration    16          0.861              1.238              0.645
 Vibration    17          0.930              1.088              0.497

 Optimization completed.
    -- Stationary point found.
 Normal termination of Gaussian 16 at Sat Feb 10 10:36:19 2024.
