 Gaussian 16, Revision A.03,
 Gaussian 16:  ES64L-G16RevA.03 25-Dec-2016

 --------------------------------------
 #P UB3LYP/6-311++G(d,p) nosym opt freq
 --------------------------------------

 -------
 Radical
 -------
 Symbolic Z-matrix:
 Charge = -1 Multiplicity = 2

 SCF Done:  E(UB3LYP) =  -5643.29842686     A.U. after   21 cycles
 SCF Done:  E(UB3LYP) =  -5643.31946308     A.U. after   18 cycles
 SCF Done:  E(UB3LYP) =  -5643.32304214     A.U. after   18 cycles
 SCF Done:  E(UB3LYP) =  -5643.32331049     A.U. after   15 cycles
 SCF Done:  E(UB3LYP) =  -5643.32334113     A.U. after   14 cycles
 SCF Done:  E(UB3LYP) =  -5643.32334545     A.U. after   13 cycles
 SCF Done:  E(UB3LYP) =  -5643.32334570     A.U. after   11 cycles
 SCF Done:  E(UB3LYP) =  -5643.32334622     A.U. after   11 cycles
 Optimization completed.
    -- Stationary point found.
 Normal termination of Gaussian 16 at Wed Dec 20 01:48:46 2023.

 ----------------------------------------------------------------------
 #P Geom=AllCheck Guess=TCheck SCRF=Check GenChk UB3LYP/6-311++G(d,p) F
 req
 ----------------------------------------------------------------------

 Structure from the checkpoint file:  "109-rad.chk"
 -------
 Radical
 -------
 Charge = -1 Multiplicity = 2

                          Input orientation:
 ---------------------------------------------------------------------
 Center     Atomic      Atomic             Coordinates (Angstroms)
 Number     Number       Type             X           Y           Z
 ---------------------------------------------------------------------
      1          6           0       -1.864641   -3.685189    1.240876
      2          6           0       -0.453787   -3.897646    1.081075
      3          6           0        0.384396   -2.874547    0.688362
      4          6           0       -0.098991   -1.517492    0.410175
      5          6           0       -1.533852   -1.299321    0.572319
      6          6           0       -2.333396   -2.332546    0.961749
      7          8           0       -2.721834   -4.545654    1.593931
      8          8           0        0.672796   -0.599206    0.054663
      9          8           0       -3.677328   -2.184235    1.128079
     10          6           0       -2.098298    0.069497    0.303900
     11         35           0        0.160846   -5.678095    1.448791
     12         35           0        2.269770   -3.133481    0.468535
     13          1           0       -1.292854    0.741492    0.007234
     14          1           0       -2.594529    0.475779    1.192454
     15          1           0       -2.851123    0.039773   -0.491841
     16          1           0       -3.955829   -3.084501    1.403851
 ---------------------------------------------------------------------

 SCF Done:  E(UB3LYP) =  -5643.32334622     A.U. after    1 cycles

 Alpha  occ. eigenvalues -- -482.70728-482.70453 -62.36004 -62.35727 -56.18036
 Alpha  occ. eigenvalues --  -56.17756 -56.17669 -56.17630 -56.17398 -56.17351
 Alpha  occ. eigenvalues --  -19.02751 -18.96969 -18.95642 -10.11297 -10.11215
 Alpha  occ. eigenvalues --  -10.10611 -10.10568 -10.10484 -10.05015 -10.04519
 Alpha  occ. eigenvalues --   -8.56969  -8.56694  -6.40100  -6.39817  -6.38868
 Alpha  occ. eigenvalues --   -6.38754  -6.38608  -6.38472  -2.51197  -2.50918
 Alpha  occ. eigenvalues --   -2.50864  -2.50777  -2.50595  -2.50492  -2.49795
 Alpha  occ. eigenvalues --   -2.49794  -2.49525  -2.49523  -0.94830  -0.88540
 Alpha  occ. eigenvalues --   -0.88358  -0.73734  -0.68336  -0.66982  -0.62227
 Alpha  occ. eigenvalues --   -0.56804  -0.54545  -0.47136  -0.45217  -0.41109
 Alpha  occ. eigenvalues --   -0.37279  -0.32810  -0.32616  -0.30624  -0.28850
 Alpha  occ. eigenvalues --   -0.28835  -0.28466  -0.27832  -0.26989  -0.24639
 Alpha  occ. eigenvalues --   -0.24364  -0.23551  -0.20965  -0.18090  -0.18009
 Alpha  occ. eigenvalues --   -0.15475  -0.14446  -0.14184  -0.12059  -0.10645
 Alpha  occ. eigenvalues --   -0.04394
 Alpha virt. eigenvalues --    0.07821   0.09352   0.11062   0.11242   0.11527
 Alpha virt. eigenvalues --    0.12419   0.12816   0.13859   0.14445   0.14566
 Alpha virt. eigenvalues --    0.15118   0.15378   0.16141   0.16282   0.17288

  Beta  occ. eigenvalues -- -482.70727-482.70450 -62.36003 -62.35724 -56.18037
  Beta  occ. eigenvalues --  -56.17758 -56.17665 -56.17629 -56.17386 -56.17350
  Beta  occ. eigenvalues --  -19.02721 -18.96293 -18.94979 -10.11144 -10.11090
  Beta  occ. eigenvalues --  -10.10529 -10.10511 -10.10188 -10.04983 -10.04524
  Beta  occ. eigenvalues --   -8.56968  -8.56689  -6.40103  -6.39822  -6.38860
  Beta  occ. eigenvalues --   -6.38753  -6.38586  -6.38470  -2.51198  -2.50919
  Beta  occ. eigenvalues --   -2.50860  -2.50779  -2.50584  -2.50495  -2.49791
  Beta  occ. eigenvalues --   -2.49790  -2.49513  -2.49512  -0.94650  -0.87429
  Beta  occ. eigenvalues --   -0.87246  -0.73227  -0.68169  -0.66801  -0.61985
  Beta  occ. eigenvalues --   -0.56401  -0.53845  -0.46821  -0.44855  -0.40787
  Beta  occ. eigenvalues --   -0.37109  -0.32472  -0.31756  -0.30221  -0.28561
  Beta  occ. eigenvalues --   -0.28235  -0.28072  -0.27514  -0.25562  -0.24451
  Beta  occ. eigenvalues --   -0.23357  -0.22694  -0.19396  -0.17968  -0.17609
  Beta  occ. eigenvalues --   -0.15378  -0.13604  -0.12189  -0.11455  -0.09960
  Beta virt. eigenvalues --    0.02757   0.07940   0.09366   0.11135   0.11554
  Beta virt. eigenvalues --    0.12310   0.12456   0.13214   0.13871   0.14480
  Beta virt. eigenvalues --    0.14646   0.15439   0.16155   0.16396   0.17303

 Mulliken charges and spin densities:
               1          2
     1  C   -0.766189   0.108112
     2  C    0.653906   0.050038
     3  C    0.007204   0.193203
     4  C   -1.412813   0.023902
     5  C    1.640102   0.049972
     6  C   -0.249915   0.054672
     7  O   -0.388843   0.245715
     8  O   -0.317603   0.243205
     9  O   -0.266129   0.010867
    10  C   -0.298395   0.007282
    11  Br  -0.166537   0.004545
    12  Br  -0.184041   0.011666
    13  H    0.193701  -0.001944
    14  H    0.144689   0.001295
    15  H    0.144702   0.001296
    16  H    0.266161  -0.003824
 Sum of Mulliken charges =  -1.00000   1.00000

 Dipole moment (field-independent basis, Debye):
    X=              2.5300    Y=             13.7484    Z=             -3.9563  Tot=             14.5283
 Quadrupole moment (field-independent basis, Debye-Ang):
   XX=           -120.5201   YY=           -160.1420   ZZ=           -103.7545
   XY=            -14.2091   XZ=              7.1256   YZ=             18.3106

  Exact polarizability: 183.243   0.921 181.805 -15.576 -25.868  91.573
 Approx polarizability: 291.833  40.799 285.160 -35.522 -46.945 145.516

 ******    1 imaginary frequencies (negative Signs) ******

                      1                      2                      3
                      A                      A                      A
 Frequencies --    -56.3561                58.8419                86.2666
 Red. masses --      1.0161                13.2182                 7.2884
 Frc consts  --      0.0019                 0.0270                 0.0320
 IR Inten    --      0.0414                 0.0232                 5.3136

                      4                      5                      6
                      A                      A                      A
 Frequencies --    129.8902               149.0725               178.5441
 Red. masses --     56.3890                 6.2763                 9.4725
 Frc consts  --      0.5605                 0.0822                 0.1779
 IR Inten    --      0.7895                 0.0871                 1.0630

                      7                      8                      9
                      A                      A                      A
 Frequencies --    179.8385               256.1127               266.6232
 Red. masses --     12.6378                 8.0522                 8.2972
 Frc consts  --      0.2408                 0.3112                 0.3475
 IR Inten    --      1.2119                 1.2452                 0.4752

                     10                     11                     12
                      A                      A                      A
 Frequencies --    294.1693               312.7874               350.6482
 Red. masses --      4.9479                 6.2122                 6.3587
 Frc consts  --      0.2523                 0.3581                 0.4606
 IR Inten    --      5.4265                 0.0971                10.4617

                     13                     14                     15
                      A                      A                      A
 Frequencies --    372.4888               415.3495               502.9280
 Red. masses --     10.7114                 9.1619                12.9651
 Frc consts  --      0.8756                 0.9312                 1.9321
 IR Inten    --      0.1991                18.8985                 5.7437

                     16                     17                     18
                      A                      A                      A
 Frequencies --    531.6240               546.9776               705.9337
 Red. masses --      8.2192                 7.0787                 4.0542
 Frc consts  --      1.3686                 1.2478                 1.1904
 IR Inten    --      4.3210                 0.7894                 3.9603

                     19                     20                     21
                      A                      A                      A
 Frequencies --    711.9228               721.7809               724.6234
 Red. masses --      9.3031                 5.9767                 1.3143
 Frc consts  --      2.7781                 1.8345                 0.4066
 IR Inten    --      1.9275                 8.6116                88.8763

                     22                     23                     24
                      A                      A                      A
 Frequencies --    771.0622               822.8811               948.1859
 Red. masses --      8.4244                10.3324                 2.4045
 Frc consts  --      2.9510                 4.1222                 1.2737
 IR Inten    --     46.4576               104.9704                 0.3580

                     25                     26                     27
                      A                      A                      A
 Frequencies --   1050.4822              1051.5128              1116.0908
 Red. masses --      1.4227                 4.0608                 4.2508
 Frc consts  --      0.9250                 2.6454                 3.1198
 IR Inten    --      0.0210                43.8735                20.2453

                     28                     29                     30
                      A                      A                      A
 Frequencies --   1215.8345              1231.6615              1323.1078
 Red. masses --      6.5725                 8.5957                 2.3863
 Frc consts  --      5.7244                 7.6827                 2.4613
 IR Inten    --    127.1379                88.0424                60.5137

                     31                     32                     33
                      A                      A                      A
 Frequencies --   1386.7732              1428.0286              1443.0641
 Red. masses --      1.3187                 2.0923                12.0124
 Frc consts  --      1.4942                 2.5139                14.7385
 IR Inten    --     37.5327               299.6505                 0.8088

                     34                     35                     36
                      A                      A                      A
 Frequencies --   1489.4995              1493.0185              1536.0444
 Red. masses --      1.1459                 1.0459                10.2983
 Frc consts  --      1.4978                 1.3736                14.3160
 IR Inten    --     64.0261                 5.4042               399.8540

                     37                     38                     39
                      A                      A                      A
 Frequencies --   1563.5595              1670.7423              3007.1334
 Red. masses --      8.7765                 6.5627                 1.0389
 Frc consts  --     12.6415                10.7932                 5.5354
 IR Inten    --     24.0988                27.7280                81.5957

                     40                     41                     42
                      A                      A                      A
 Frequencies --   3043.9213              3116.7667              3502.3351
 Red. masses --      1.0996                 1.0969                 1.0635
 Frc consts  --      6.0029                 6.2778                 7.6861
 IR Inten    --     38.1749                 6.4673                99.3310

 - Thermochemistry -
 -------------------
 Temperature   298.150 Kelvin.  Pressure   1.00000 Atm.
 Atom     1 has atomic number  6 and mass  12.00000

 Molecular mass:   293.85272 amu.
 Principal axes and moments of inertia in atomic units:
                           1         2         3
     Eigenvalues --  3041.204403886.104806916.17818
           X            0.77851   0.61047   0.14580
           Y           -0.62611   0.73920   0.24812
           Z            0.04369  -0.28445   0.95770
 This molecule is an asymmetric top.
 Rotational symmetry number  1.
 Warning -- assumption of classical behavior for rotation
           may cause significant error
 Rotational temperatures (Kelvin)      0.02848     0.02229     0.01252
 Rotational constants (GHZ):           0.59343     0.46441     0.26094
    1 imaginary frequencies ignored.
 Zero-point vibrational energy     249470.0 (Joules/Mol)
                                   59.62476 (Kcal/Mol)
 Warning -- explicit consideration of  16 degrees of freedom as
           vibrations may cause significant error
 Vibrational temperatures:     84.66   124.12   186.88   214.48   256.89
          (Kelvin)            258.75   368.49   383.61   423.24   450.03
                              504.50   535.93   597.60   723.60   764.89
                              786.98  1015.68  1024.30  1038.48  1042.57
                             1109.39  1183.94  1364.23  1511.41  1512.89
                             1605.81  1749.31  1772.09  1903.66  1995.26
                             2054.61  2076.25  2143.06  2148.12  2210.03
                             2249.61  2403.83  4326.59  4379.52  4484.33
                             5039.08

 Zero-point correction=                           0.095018 (Hartree/Particle)
 Thermal correction to Energy=                    0.106117
 Thermal correction to Enthalpy=                  0.107061
 Thermal correction to Gibbs Free Energy=         0.055392
 Sum of electronic and zero-point Energies=          -5643.228328
 Sum of electronic and thermal Energies=             -5643.217229
 Sum of electronic and thermal Enthalpies=           -5643.216285
 Sum of electronic and thermal Free Energies=        -5643.267954

                     E (Thermal)             CV                S
                      KCal/Mol        Cal/Mol-Kelvin    Cal/Mol-Kelvin
 Total                   66.590             39.386            108.748
 Electronic               0.000              0.000              1.377
 Translational            0.889              2.981             42.931
 Rotational               0.889              2.981             32.769
 Vibrational             64.812             33.424             31.670
 Vibration     1          0.596              1.974              4.496
 Vibration     2          0.601              1.959              3.743
 Vibration     3          0.612              1.923              2.948
 Vibration     4          0.618              1.904              2.684
 Vibration     5          0.629              1.869              2.344
 Vibration     6          0.629              1.867              2.330
 Vibration     7          0.666              1.752              1.688
 Vibration     8          0.672              1.734              1.618
 Vibration     9          0.689              1.685              1.450
 Vibration    10          0.701              1.649              1.348
 Vibration    11          0.728              1.574              1.163
 Vibration    12          0.744              1.529              1.070
 Vibration    13          0.779              1.437              0.908
 Vibration    14          0.858              1.244              0.651
 Vibration    15          0.887              1.180              0.584
 Vibration    16          0.902              1.146              0.550

 Optimization completed.
    -- Stationary point found.
 Normal termination of Gaussian 16 at Wed Dec 20 02:02:00 2023.
