 Q-Chem 5.4, Q-Chem, Inc., Pleasanton, CA (2021)
 Q-Chem 5.4.0 for Intel X86 EM64T Linux

User input:
--------------------------------------------------------------
$molecule
0 1
C                 -1.2505580000      2.7491670000     -0.5131830000
C                 -2.5404530000      2.2363330000     -0.4279410000
C                 -2.7481870000      0.9372910000      0.0418460000
C                 -0.1600270000      1.9640910000     -0.1277400000
C                 -0.3695120000      0.6584840000      0.3441400000
C                 -1.6663990000      0.1506240000      0.4266010000
C                  1.2130200000      2.5322080000     -0.2266070000
C                  2.3564300000      1.6429460000      0.2115930000
C                  2.1319330000      0.3819390000      0.6556610000
C                  0.7897880000     -0.1917310000      0.7592860000
O                  1.4264590000      3.6543800000     -0.6369360000
O                  0.6235630000     -1.3326400000      1.1715700000
H                 -1.0669180000      3.7534820000     -0.8746310000
H                 -1.8036700000     -0.8591430000      0.7934810000
O                  3.5295700000      2.2631330000      0.1021890000
H                 -3.3851050000      2.8465300000     -0.7268150000
H                 -3.7547980000      0.5399680000      0.1071610000
H                  2.9319920000     -0.2786060000      0.9618770000
C                  4.7692630000      1.5958730000      0.4710070000
C                  5.7482060000      2.7112470000      0.8027120000
C                  5.2404270000      0.7044620000     -0.6733610000
H                  4.5778190000      0.9997610000      1.3691010000
H                  6.7076690000      2.2863680000      1.1081210000
H                  5.3671440000      3.3306500000      1.6165840000
H                  5.9108650000      3.3484170000     -0.0696620000
H                  6.1679720000      0.1993020000     -0.3915740000
H                  5.4325780000      1.3073660000     -1.5642320000
H                  4.5031370000     -0.0595880000     -0.9258980000
$end

$rem
BASIS  =  6-311++G(d,p)
GUI  =  2
JOB_TYPE  =  SP
METHOD  =  B3LYP
SCF_CONVERGENCE  = 8
SOLVENT_METHOD = sm12
$end

$smx
solvent dimethylformamide
charges CM5
$end

--------------------------------------------------------------

             Standard Nuclear Orientation (Angstroms)
    I     Atom           X                Y                Z
 ----------------------------------------------------------------
    1      C      -1.2505580000     2.7491670000    -0.5131830000
    2      C      -2.5404530000     2.2363330000    -0.4279410000
    3      C      -2.7481870000     0.9372910000     0.0418460000
    4      C      -0.1600270000     1.9640910000    -0.1277400000
    5      C      -0.3695120000     0.6584840000     0.3441400000
    6      C      -1.6663990000     0.1506240000     0.4266010000
    7      C       1.2130200000     2.5322080000    -0.2266070000
    8      C       2.3564300000     1.6429460000     0.2115930000
    9      C       2.1319330000     0.3819390000     0.6556610000
   10      C       0.7897880000    -0.1917310000     0.7592860000
   11      O       1.4264590000     3.6543800000    -0.6369360000
   12      O       0.6235630000    -1.3326400000     1.1715700000
   13      H      -1.0669180000     3.7534820000    -0.8746310000
   14      H      -1.8036700000    -0.8591430000     0.7934810000
   15      O       3.5295700000     2.2631330000     0.1021890000
   16      H      -3.3851050000     2.8465300000    -0.7268150000
   17      H      -3.7547980000     0.5399680000     0.1071610000
   18      H       2.9319920000    -0.2786060000     0.9618770000
   19      C       4.7692630000     1.5958730000     0.4710070000
   20      C       5.7482060000     2.7112470000     0.8027120000
   21      C       5.2404270000     0.7044620000    -0.6733610000
   22      H       4.5778190000     0.9997610000     1.3691010000
   23      H       6.7076690000     2.2863680000     1.1081210000
   24      H       5.3671440000     3.3306500000     1.6165840000
   25      H       5.9108650000     3.3484170000    -0.0696620000
   26      H       6.1679720000     0.1993020000    -0.3915740000
   27      H       5.4325780000     1.3073660000    -1.5642320000
   28      H       4.5031370000    -0.0595880000    -0.9258980000
 ----------------------------------------------------------------

   15    -728.4751750459      7.58e-09  Convergence criterion met
 Total energy in the final basis set =     -728.4952124546

                    Orbital Energies (a.u.)
 --------------------------------------------------------------

 Alpha MOs
 -- Occupied --
-19.1764 -19.1368 -19.1211 -10.2867 -10.2753 -10.2726 -10.2414 -10.2085
-10.2069 -10.1984 -10.1979 -10.1966 -10.1962 -10.1926 -10.1640 -10.1612
 -1.1004  -1.0656  -1.0539  -0.8895  -0.8372  -0.8007  -0.7779  -0.7672
 -0.6993  -0.6963  -0.6524  -0.6488  -0.5980  -0.5917  -0.5497  -0.5425
 -0.5230  -0.4944  -0.4783  -0.4699  -0.4624  -0.4519  -0.4509  -0.4457
 -0.4337  -0.4321  -0.4162  -0.4026  -0.3952  -0.3902  -0.3827  -0.3760
 -0.3708  -0.3665  -0.3460  -0.3381  -0.2862  -0.2859  -0.2781  -0.2732
 -0.2609

          Ground-State Mulliken Net Atomic Charges

     Atom                 Charge (a.u.)
  ----------------------------------------
      1 C                     0.152880
      2 C                     0.308975
      3 C                     0.310685
      4 C                    -0.324295
      5 C                    -0.227052
      6 C                     0.064424
      7 C                    -0.862073
      8 C                    -0.233880
      9 C                     0.342001
     10 C                    -0.935174
     11 O                    -0.286688
     12 O                    -0.334484
     13 H                     0.188324
     14 H                     0.167716
     15 O                     0.000114
     16 H                     0.325279
     17 H                     0.324673
     18 H                     0.321567
     19 C                     0.108751
     20 C                    -0.353977
     21 C                    -0.234992
     22 H                     0.201021
     23 H                     0.218356
     24 H                     0.134102
     25 H                     0.121886
     26 H                     0.214004
     27 H                     0.129981
     28 H                     0.157873
  ----------------------------------------
  Sum of atomic charges =     0.000000

                    Cartesian Multipole Moments
 -----------------------------------------------------------------
    Charge (ESU x 10^10)
                 0.0000
    Dipole Moment (Debye)
         X       0.8981      Y       0.3137      Z      -0.1376
       Tot       0.9612
    Quadrupole Moments (Debye-Ang)
        XX     -59.3593     XY      -4.1153     YY    -108.4435
        XZ       4.5768     YZ       5.1149     ZZ     -96.2756

 Total job time:  535.32s(wall), 4179.35s(cpu)
        *  Thank you very much for using Q-Chem.  Have a nice day.  *
