 Q-Chem 5.4, Q-Chem, Inc., Pleasanton, CA (2021)
 Q-Chem 5.4.0 for Intel X86 EM64T Linux

User input:
--------------------------------------------------------------
$molecule
-2 1
C                 -2.8885130000      1.3070220000     -0.7442200000
C                 -2.1568070000      0.0858080000     -0.1531120000
C                 -2.7053350000     -0.1413840000      1.2780930000
C                 -2.5119460000     -1.1423190000     -1.0285320000
C                 -0.6212880000      0.2494780000     -0.0953760000
C                 -0.0038860000      1.4406350000     -0.5610190000
C                  1.3861690000      1.7121100000     -0.5625690000
O                  1.9077720000      2.8169560000     -0.9989430000
C                  2.1915380000      0.6255390000     -0.0235020000
C                  3.5990680000      0.7505380000      0.0400350000
C                  4.4088010000     -0.2521930000      0.5431580000
C                  3.8164350000     -1.4544300000      1.0155750000
C                  2.4427450000     -1.6058880000      0.9663990000
C                  1.5856380000     -0.5980110000      0.4571000000
C                  0.1505980000     -0.8289840000      0.4375940000
O                 -0.3561720000     -1.9490440000      0.8813120000
H                 -2.5725090000      1.5102980000     -1.7722990000
H                 -3.9709050000      1.1152160000     -0.7514230000
H                 -2.7074260000      2.2117940000     -0.1554180000
H                 -2.1856010000     -0.9939040000      1.7216660000
H                 -3.7911270000     -0.3335710000      1.2604520000
H                 -2.5257660000      0.7477900000      1.8939700000
H                 -3.5991840000     -1.3269930000     -1.0297650000
H                 -1.9882530000     -2.0167310000     -0.6349840000
H                 -2.1935500000     -0.9697450000     -2.0634180000
H                 -0.6166410000      2.2438550000     -0.9610980000
H                  4.0141800000      1.6839820000     -0.3304320000
H                  5.4903170000     -0.1233170000      0.5777770000
H                  4.4425150000     -2.2523840000      1.4144660000
H                  1.9591290000     -2.5121240000      1.3194200000
$end
$rem
MAX_SCF_CYCLES=200
BASIS  =  6-311++G(d,p)
GUI  =  2
JOB_TYPE  =  SP
METHOD  =  B3LYP
SOLVENT_METHOD = COSMO
$end
$solvent
dielectric 37.219
opticaldielectric 1.43
$end

--------------------------------------------------------------

             Standard Nuclear Orientation (Angstroms)
    I     Atom           X                Y                Z
 ----------------------------------------------------------------
    1      C       3.4542461033    -1.2745925422     0.0002909748
    2      C       2.6434181285     0.0364085380    -0.0000760162
    3      C       3.0511159717     0.8397038540     1.2606166615
    4      C       3.0507731769     0.8390873692    -1.2612454625
    5      C       1.1132621689    -0.1793750935     0.0002029068
    6      C       0.5688275671    -1.4910360978     0.0001249643
    7      C      -0.8085900714    -1.8206944513     0.0001279839
    8      O      -1.2623313312    -3.0361348842    -0.0001256337
    9      C      -1.6848705459    -0.6579470548    -0.0000018655
   10      C      -3.0890353037    -0.8286038266     0.0000209887
   11      C      -3.9644285620     0.2428234384    -0.0000211853
   12      C      -3.4457946159     1.5658759439    -0.0000642437
   13      C      -2.0772461130     1.7645138458    -0.0000504671
   14      C      -1.1540059647     0.6886599744     0.0000127363
   15      C       0.2710607035     0.9754590890     0.0002798607
   16      O       0.7090113906     2.2068952639     0.0000729621
   17      H       3.2399478270    -1.8839059578    -0.8834168393
   18      H       4.5280209927    -1.0391751540     0.0003740612
   19      H       3.2395447060    -1.8833896873     0.8842378142
   20      H       2.4733104513     1.7665608698     1.2879596717
   21      H       4.1292381141     1.0715582458     1.2512624044
   22      H       2.8350549152     0.2559611677     2.1632472633
   23      H       4.1289766154     1.0705896883    -1.2524992228
   24      H       2.4731901284     1.7661135365    -1.2886505652
   25      H       2.8340367824     0.2551259998    -2.1635543263
   26      H       1.2340698388    -2.3501909057     0.0001013620
   27      H      -3.4467642406    -1.8547185709     0.0001262456
   28      H      -5.0412986006     0.0759843773     0.0000455318
   29      H      -4.1240716471     2.4189650665    -0.0000557285
   30      H      -1.6490922177     2.7627403688    -0.0000633196
 ----------------------------------------------------------------

   11    -692.5305000323      6.33e-06  Convergence criterion met
 Total energy in the final basis set =     -692.5305000323
    6    -692.8097197084      2.72e-06  Convergence criterion met
 Total energy in the final basis set =     -692.8097197084

                    Orbital Energies (a.u.)
 --------------------------------------------------------------

 Alpha MOs
 -- Occupied --
-19.0219 -19.0130 -10.1706 -10.1673 -10.1604 -10.1498 -10.1493 -10.1460
-10.1446 -10.1376 -10.1374 -10.1373 -10.1301 -10.1301 -10.1289 -10.1173
 -0.9340  -0.9253  -0.8242  -0.7973  -0.7525  -0.7221  -0.6960  -0.6641
 -0.6584  -0.6390  -0.5874  -0.5793  -0.5316  -0.5113  -0.4710  -0.4621
 -0.4383  -0.4276  -0.4141  -0.4124  -0.3998  -0.3903  -0.3812  -0.3799
 -0.3673  -0.3619  -0.3511  -0.3486  -0.3446  -0.3237  -0.3191  -0.3120
 -0.3044  -0.3025  -0.3006  -0.2936  -0.2301  -0.2239  -0.2100  -0.2024
 -0.1900  -0.1151

          Ground-State Mulliken Net Atomic Charges

     Atom                 Charge (a.u.)
  ----------------------------------------
      1 C                    -0.524897
      2 C                     0.781294
      3 C                    -0.700234
      4 C                    -0.700140
      5 C                     0.697218
      6 C                    -0.403641
      7 C                    -0.556169
      8 O                    -0.768249
      9 C                     0.502883
     10 C                    -0.150299
     11 C                    -0.495426
     12 C                    -0.469652
     13 C                     0.059878
     14 C                     0.284846
     15 C                    -0.986464
     16 O                    -0.694498
     17 H                     0.133416
     18 H                     0.167203
     19 H                     0.133390
     20 H                     0.180874
     21 H                     0.136616
     22 H                     0.125020
     23 H                     0.136406
     24 H                     0.181019
     25 H                     0.124984
     26 H                     0.138348
     27 H                     0.152407
     28 H                     0.178941
     29 H                     0.179186
     30 H                     0.155740
  ----------------------------------------
  Sum of atomic charges =    -2.000000

                    Cartesian Multipole Moments
 -----------------------------------------------------------------
    Charge (ESU x 10^10)
                -9.6064
    Dipole Moment (Debye)
         X       4.3544      Y       3.7989      Z       0.0006
       Tot       5.7786
    Quadrupole Moments (Debye-Ang)
        XX    -125.3190     XY     -19.0972     YY    -161.6547
        XZ      -0.0088     YZ      -0.0010     ZZ    -109.8115

 Total job time:  74.43s(wall), 572.88s(cpu)
        *  Thank you very much for using Q-Chem.  Have a nice day.  *
