 Q-Chem 5.4, Q-Chem, Inc., Pleasanton, CA (2021)
 Q-Chem 5.4.0 for Intel X86 EM64T Linux

User input:
--------------------------------------------------------------
$molecule
0 1
C                 -1.8186380000      2.8111510000     -0.7528290000
C                 -2.9172350000      1.9849110000     -0.5315540000
C                 -2.7206600000      0.6533920000     -0.1688140000
C                 -0.5229380000      2.3140590000     -0.6136330000
C                 -0.3240120000      0.9673870000     -0.2467900000
C                 -1.4313810000      0.1437100000     -0.0261820000
C                  0.6394960000      3.2176600000     -0.8556580000
C                  2.0667950000      2.6137600000     -0.6872010000
C                  2.1512460000      1.2145550000     -0.3063700000
C                  1.0467670000      0.4554920000     -0.1032890000
O                  0.5088560000      4.3772190000     -1.1713050000
O                  3.0395800000      3.3174050000     -0.8755600000
H                 -1.9427450000      3.8495300000     -1.0355680000
H                 -3.9216950000      2.3768090000     -0.6412470000
H                 -3.5730450000      0.0065600000      0.0044640000
H                 -1.2792310000     -0.8896000000      0.2553490000
H                  3.1482960000      0.8002740000     -0.1906140000
O                  1.1060900000     -0.8483430000      0.2516090000
H                  2.0264060000     -1.1275640000      0.3306320000
$end
$rem
MAX_SCF_CYCLES=200
BASIS  =  6-311++G(d,p)
GUI  =  2
JOB_TYPE  =  SP
METHOD  =  B3LYP
SOLVENT_METHOD = PCM
$end
$pcm
theory = CPCM
$end
$solvent
dielectric 37.219
opticaldielectric 1.43
$end

--------------------------------------------------------------

             Standard Nuclear Orientation (Angstroms)
    I     Atom           X                Y                Z
 ----------------------------------------------------------------
    1      C      -1.8186380000     2.8111510000    -0.7528290000
    2      C      -2.9172350000     1.9849110000    -0.5315540000
    3      C      -2.7206600000     0.6533920000    -0.1688140000
    4      C      -0.5229380000     2.3140590000    -0.6136330000
    5      C      -0.3240120000     0.9673870000    -0.2467900000
    6      C      -1.4313810000     0.1437100000    -0.0261820000
    7      C       0.6394960000     3.2176600000    -0.8556580000
    8      C       2.0667950000     2.6137600000    -0.6872010000
    9      C       2.1512460000     1.2145550000    -0.3063700000
   10      C       1.0467670000     0.4554920000    -0.1032890000
   11      O       0.5088560000     4.3772190000    -1.1713050000
   12      O       3.0395800000     3.3174050000    -0.8755600000
   13      H      -1.9427450000     3.8495300000    -1.0355680000
   14      H      -3.9216950000     2.3768090000    -0.6412470000
   15      H      -3.5730450000     0.0065600000     0.0044640000
   16      H      -1.2792310000    -0.8896000000     0.2553490000
   17      H       3.1482960000     0.8002740000    -0.1906140000
   18      O       1.1060900000    -0.8483430000     0.2516090000
   19      H       2.0264060000    -1.1275640000     0.3306320000
 ----------------------------------------------------------------

    9    -610.5242853401      5.11e-06  Convergence criterion met
 Total energy in the final basis set =     -610.5242853401

                    Orbital Energies (a.u.)
 --------------------------------------------------------------

 Alpha MOs
 -- Occupied --
-19.1889 -19.1471 -19.1318 -10.2876 -10.2857 -10.2784 -10.2187 -10.2098
-10.2007 -10.1999 -10.1993 -10.1966 -10.1882  -1.1027  -1.0875  -1.0575
 -0.8959  -0.8326  -0.7852  -0.7670  -0.7099  -0.6577  -0.6280  -0.6215
 -0.5616  -0.5528  -0.5308  -0.4859  -0.4816  -0.4663  -0.4648  -0.4599
 -0.4548  -0.4349  -0.4309  -0.4128  -0.4038  -0.3809  -0.3797  -0.3714
 -0.3166  -0.3035  -0.2825  -0.2658  -0.2553

          Ground-State Mulliken Net Atomic Charges

     Atom                 Charge (a.u.)
  ----------------------------------------
      1 C                     0.353589
      2 C                    -0.368511
      3 C                    -0.407104
      4 C                    -0.156073
      5 C                    -0.317298
      6 C                     0.366576
      7 C                    -0.274724
      8 C                    -0.106563
      9 C                     0.289412
     10 C                     0.059979
     11 O                    -0.288704
     12 O                    -0.362556
     13 H                     0.193083
     14 H                     0.226824
     15 H                     0.225756
     16 H                     0.212428
     17 H                     0.225095
     18 O                    -0.201915
     19 H                     0.330706
  ----------------------------------------
  Sum of atomic charges =     0.000000

                    Cartesian Multipole Moments
 -----------------------------------------------------------------
    Charge (ESU x 10^10)
                 0.0000
    Dipole Moment (Debye)
         X      -4.3648      Y      -7.9376      Z       2.1451
       Tot       9.3091
    Quadrupole Moments (Debye-Ang)
        XX     -69.0287     XY     -25.6252     YY    -107.7906
        XZ       6.9176     YZ       8.5223     ZZ     -77.9161

 Total job time:  26.79s(wall), 162.07s(cpu)
        *  Thank you very much for using Q-Chem.  Have a nice day.  *
