 Q-Chem 5.4, Q-Chem, Inc., Pleasanton, CA (2021)
 Q-Chem 5.4.0 for Intel X86 EM64T Linux

User input:
--------------------------------------------------------------
$molecule
0 1
C                  4.4055450000     -0.1139980000     -0.0116060000
C                  2.9679950000      0.3243210000     -0.1138280000
C                  2.6333390000      1.6405610000     -0.4532080000
C                  1.3122110000      2.0518870000     -0.5448700000
C                  0.2741410000      1.1539660000     -0.2958110000
C                 -1.1341640000      1.6428000000     -0.4117950000
O                 -1.3696200000      2.8011140000     -0.7121240000
C                 -2.2265660000      0.6670410000     -0.1523410000
C                 -3.5563180000      1.0848070000     -0.2643950000
C                 -4.5906110000      0.1879610000     -0.0262570000
C                 -4.3053490000     -1.1340840000      0.3274580000
C                 -2.9868290000     -1.5573660000      0.4428190000
C                 -1.9396580000     -0.6618230000      0.2032490000
C                 -0.5379040000     -1.1495040000      0.3390590000
O                 -0.2958940000     -2.2932470000      0.6769760000
C                  0.5643040000     -0.1792670000      0.0504580000
C                  1.9087650000     -0.5549410000      0.1278890000
N                  2.3008210000     -1.9518800000      0.4704500000
O                  2.4198020000     -2.7317830000     -0.4585740000
O                  2.5682140000     -2.1758490000      1.6383920000
H                  5.0740070000      0.6974230000     -0.2990140000
H                  4.6052540000     -0.9703610000     -0.6610510000
H                  4.6499160000     -0.4162000000      1.0103310000
H                  3.4318940000      2.3473810000     -0.6489850000
H                  1.0589610000      3.0707100000     -0.8097120000
H                 -3.7538490000      2.1136350000     -0.5384770000
H                 -5.6203110000      0.5148770000     -0.1148020000
H                 -5.1139300000     -1.8317840000      0.5128060000
H                 -2.7441640000     -2.5763960000      0.7169630000
$end
$rem
MAX_SCF_CYCLES=200
BASIS  =  6-311++G(d,p)
GUI  =  2
JOB_TYPE  =  SP
METHOD  =  B3LYP
SOLVENT_METHOD = PCM
$end
$pcm
theory = CPCM
$end
$solvent
dielectric 37.219
opticaldielectric 1.43
$end

--------------------------------------------------------------

             Standard Nuclear Orientation (Angstroms)
    I     Atom           X                Y                Z
 ----------------------------------------------------------------
    1      C       4.4055450000    -0.1139980000    -0.0116060000
    2      C       2.9679950000     0.3243210000    -0.1138280000
    3      C       2.6333390000     1.6405610000    -0.4532080000
    4      C       1.3122110000     2.0518870000    -0.5448700000
    5      C       0.2741410000     1.1539660000    -0.2958110000
    6      C      -1.1341640000     1.6428000000    -0.4117950000
    7      O      -1.3696200000     2.8011140000    -0.7121240000
    8      C      -2.2265660000     0.6670410000    -0.1523410000
    9      C      -3.5563180000     1.0848070000    -0.2643950000
   10      C      -4.5906110000     0.1879610000    -0.0262570000
   11      C      -4.3053490000    -1.1340840000     0.3274580000
   12      C      -2.9868290000    -1.5573660000     0.4428190000
   13      C      -1.9396580000    -0.6618230000     0.2032490000
   14      C      -0.5379040000    -1.1495040000     0.3390590000
   15      O      -0.2958940000    -2.2932470000     0.6769760000
   16      C       0.5643040000    -0.1792670000     0.0504580000
   17      C       1.9087650000    -0.5549410000     0.1278890000
   18      N       2.3008210000    -1.9518800000     0.4704500000
   19      O       2.4198020000    -2.7317830000    -0.4585740000
   20      O       2.5682140000    -2.1758490000     1.6383920000
   21      H       5.0740070000     0.6974230000    -0.2990140000
   22      H       4.6052540000    -0.9703610000    -0.6610510000
   23      H       4.6499160000    -0.4162000000     1.0103310000
   24      H       3.4318940000     2.3473810000    -0.6489850000
   25      H       1.0589610000     3.0707100000    -0.8097120000
   26      H      -3.7538490000     2.1136350000    -0.5384770000
   27      H      -5.6203110000     0.5148770000    -0.1148020000
   28      H      -5.1139300000    -1.8317840000     0.5128060000
   29      H      -2.7441640000    -2.5763960000     0.7169630000
 ----------------------------------------------------------------

    9    -932.8476986069      4.53e-06  Convergence criterion met
 Total energy in the final basis set =     -932.8476986069

                    Orbital Energies (a.u.)
 --------------------------------------------------------------

 Alpha MOs
 -- Occupied --
-19.1904 -19.1902 -19.1426 -19.1373 -14.5799 -10.2965 -10.2900 -10.2626
-10.2333 -10.2303 -10.2202 -10.2136 -10.2123 -10.2076 -10.2069 -10.2003
-10.2001 -10.1996 -10.1993 -10.1813  -1.2676  -1.0959  -1.0808  -1.0726
 -0.9183  -0.8918  -0.8389  -0.8219  -0.7897  -0.7821  -0.7412  -0.7224
 -0.6840  -0.6650  -0.6488  -0.6149  -0.5986  -0.5877  -0.5628  -0.5557
 -0.5494  -0.5409  -0.5119  -0.4969  -0.4876  -0.4797  -0.4675  -0.4670
 -0.4553  -0.4526  -0.4436  -0.4413  -0.4293  -0.4132  -0.4023  -0.3957
 -0.3928  -0.3827  -0.3746  -0.3721  -0.3479  -0.3431  -0.3376  -0.2980
 -0.2965  -0.2861  -0.2847  -0.2815  -0.2794

          Ground-State Mulliken Net Atomic Charges

     Atom                 Charge (a.u.)
  ----------------------------------------
      1 C                    -0.521910
      2 C                     0.932913
      3 C                    -1.049544
      4 C                    -0.128012
      5 C                     0.604473
      6 C                    -0.633887
      7 O                    -0.269963
      8 C                     0.075460
      9 C                     0.175993
     10 C                    -0.377639
     11 C                    -0.416281
     12 C                     0.174303
     13 C                     0.052235
     14 C                    -0.629941
     15 O                    -0.229137
     16 C                     0.178294
     17 C                     0.318669
     18 N                    -0.162045
     19 O                     0.002624
     20 O                     0.001126
     21 H                     0.204866
     22 H                     0.205908
     23 H                     0.213803
     24 H                     0.215631
     25 H                     0.205676
     26 H                     0.199522
     27 H                     0.227985
     28 H                     0.229364
     29 H                     0.199513
  ----------------------------------------
  Sum of atomic charges =     0.000000

                    Cartesian Multipole Moments
 -----------------------------------------------------------------
    Charge (ESU x 10^10)
                 0.0000
    Dipole Moment (Debye)
         X      -1.3345      Y       4.3985      Z      -1.2080
       Tot       4.7526
    Quadrupole Moments (Debye-Ang)
        XX     -77.2167     XY      21.3406     YY    -134.0166
        XZ      -5.9476     YZ       3.7645     ZZ    -120.1310

 Total job time:  85.14s(wall), 465.93s(cpu)
        *  Thank you very much for using Q-Chem.  Have a nice day.  *
