 Gaussian 16, Revision A.03,
 Gaussian 16:  ES64L-G16RevA.03 25-Dec-2016

 --------------------------------------
 #P UB3LYP/6-311++G(d,p) nosym opt freq
 --------------------------------------

 --------
 Oxidized
 --------
 Symbolic Z-matrix:
 Charge =  0 Multiplicity = 1

 SCF Done:  E(UB3LYP) =  -932.828529114     A.U. after   16 cycles
 Optimization completed.
    -- Stationary point found.
 Normal termination of Gaussian 16 at Wed Dec 27 19:52:43 2023.

 ----------------------------------------------------------------------
 #P Geom=AllCheck Guess=TCheck SCRF=Check GenChk UB3LYP/6-311++G(d,p) F
 req
 ----------------------------------------------------------------------

 Structure from the checkpoint file:  "175.chk"
 --------
 Oxidized
 --------
 Charge =  0 Multiplicity = 1

                          Input orientation:
 ---------------------------------------------------------------------
 Center     Atomic      Atomic             Coordinates (Angstroms)
 Number     Number       Type             X           Y           Z
 ---------------------------------------------------------------------
      1          6           0        4.405545   -0.113998   -0.011606
      2          6           0        2.967995    0.324321   -0.113828
      3          6           0        2.633339    1.640561   -0.453208
      4          6           0        1.312211    2.051887   -0.544870
      5          6           0        0.274141    1.153966   -0.295811
      6          6           0       -1.134164    1.642800   -0.411795
      7          8           0       -1.369620    2.801114   -0.712124
      8          6           0       -2.226566    0.667041   -0.152341
      9          6           0       -3.556318    1.084807   -0.264395
     10          6           0       -4.590611    0.187961   -0.026257
     11          6           0       -4.305349   -1.134084    0.327458
     12          6           0       -2.986829   -1.557366    0.442819
     13          6           0       -1.939658   -0.661823    0.203249
     14          6           0       -0.537904   -1.149504    0.339059
     15          8           0       -0.295894   -2.293247    0.676976
     16          6           0        0.564304   -0.179267    0.050458
     17          6           0        1.908765   -0.554941    0.127889
     18          7           0        2.300821   -1.951880    0.470450
     19          8           0        2.419802   -2.731783   -0.458574
     20          8           0        2.568214   -2.175849    1.638392
     21          1           0        5.074007    0.697423   -0.299014
     22          1           0        4.605254   -0.970361   -0.661051
     23          1           0        4.649916   -0.416200    1.010331
     24          1           0        3.431894    2.347381   -0.648985
     25          1           0        1.058961    3.070710   -0.809712
     26          1           0       -3.753849    2.113635   -0.538477
     27          1           0       -5.620311    0.514877   -0.114802
     28          1           0       -5.113930   -1.831784    0.512806
     29          1           0       -2.744164   -2.576396    0.716963
 ---------------------------------------------------------------------

 SCF Done:  E(UB3LYP) =  -932.828529114     A.U. after    1 cycles

 Alpha  occ. eigenvalues --  -19.17449 -19.17439 -19.14029 -19.13800 -14.56593
 Alpha  occ. eigenvalues --  -10.29479 -10.29102 -10.26525 -10.23771 -10.23700
 Alpha  occ. eigenvalues --  -10.22614 -10.21985 -10.21888 -10.21868 -10.21538
 Alpha  occ. eigenvalues --  -10.21111 -10.21056 -10.20832 -10.20801 -10.19716
 Alpha  occ. eigenvalues --   -1.25253  -1.08024  -1.07746  -1.07244  -0.92299
 Alpha  occ. eigenvalues --   -0.89918  -0.84390  -0.82637  -0.79852  -0.78947
 Alpha  occ. eigenvalues --   -0.74769  -0.72629  -0.68918  -0.67300  -0.65604
 Alpha  occ. eigenvalues --   -0.61876  -0.59689  -0.58419  -0.56754  -0.55456
 Alpha  occ. eigenvalues --   -0.54117  -0.53078  -0.51382  -0.50378  -0.49487
 Alpha  occ. eigenvalues --   -0.48905  -0.47072  -0.46457  -0.46140  -0.46031
 Alpha  occ. eigenvalues --   -0.45239  -0.44813  -0.42832  -0.42525  -0.41430
 Alpha  occ. eigenvalues --   -0.40399  -0.40343  -0.39205  -0.38058  -0.37876
 Alpha  occ. eigenvalues --   -0.33313  -0.32990  -0.32318  -0.30155  -0.29527
 Alpha  occ. eigenvalues --   -0.29031  -0.28861  -0.28412  -0.28355
 Alpha virt. eigenvalues --   -0.12831  -0.09017  -0.08733  -0.05210  -0.04303
 Alpha virt. eigenvalues --   -0.01468  -0.01076   0.00550   0.01080   0.01117
 Alpha virt. eigenvalues --    0.01662   0.02513   0.03072   0.03503   0.03548

  Beta  occ. eigenvalues --  -19.17449 -19.17439 -19.14029 -19.13800 -14.56593
  Beta  occ. eigenvalues --  -10.29479 -10.29102 -10.26525 -10.23771 -10.23700
  Beta  occ. eigenvalues --  -10.22614 -10.21985 -10.21888 -10.21868 -10.21538
  Beta  occ. eigenvalues --  -10.21111 -10.21056 -10.20832 -10.20801 -10.19716
  Beta  occ. eigenvalues --   -1.25253  -1.08024  -1.07746  -1.07244  -0.92299
  Beta  occ. eigenvalues --   -0.89918  -0.84390  -0.82637  -0.79852  -0.78947
  Beta  occ. eigenvalues --   -0.74769  -0.72629  -0.68918  -0.67300  -0.65604
  Beta  occ. eigenvalues --   -0.61876  -0.59689  -0.58419  -0.56754  -0.55456
  Beta  occ. eigenvalues --   -0.54117  -0.53078  -0.51382  -0.50378  -0.49487
  Beta  occ. eigenvalues --   -0.48905  -0.47072  -0.46457  -0.46140  -0.46031
  Beta  occ. eigenvalues --   -0.45239  -0.44813  -0.42832  -0.42525  -0.41430
  Beta  occ. eigenvalues --   -0.40399  -0.40343  -0.39205  -0.38058  -0.37876
  Beta  occ. eigenvalues --   -0.33313  -0.32990  -0.32318  -0.30155  -0.29527
  Beta  occ. eigenvalues --   -0.29031  -0.28861  -0.28412  -0.28355
  Beta virt. eigenvalues --   -0.12831  -0.09017  -0.08733  -0.05210  -0.04303
  Beta virt. eigenvalues --   -0.01468  -0.01076   0.00550   0.01080   0.01117
  Beta virt. eigenvalues --    0.01662   0.02513   0.03072   0.03503   0.03548

 Mulliken charges and spin densities:
               1          2
     1  C   -0.464402  -0.000000
     2  C    0.932246  -0.000000
     3  C   -0.987224  -0.000000
     4  C   -0.156346  -0.000000
     5  C    0.597866   0.000000
     6  C   -0.744488   0.000000
     7  O   -0.201985  -0.000000
     8  C    0.117890  -0.000000
     9  C    0.154665  -0.000000
    10  C   -0.305816   0.000000
    11  C   -0.352553   0.000000
    12  C    0.154206  -0.000000
    13  C    0.093131   0.000000
    14  C   -0.713253   0.000000
    15  O   -0.151788  -0.000000
    16  C    0.154833   0.000000
    17  C    0.324234  -0.000000
    18  N   -0.217738  -0.000000
    19  O    0.057531   0.000000
    20  O    0.055479   0.000000
    21  H    0.170458  -0.000000
    22  H    0.196910   0.000000
    23  H    0.205893   0.000000
    24  H    0.153204   0.000000
    25  H    0.189242  -0.000000
    26  H    0.185583   0.000000
    27  H    0.181580  -0.000000
    28  H    0.183336   0.000000
    29  H    0.187305   0.000000
 Sum of Mulliken charges =  -0.00000   0.00000

 Dipole moment (field-independent basis, Debye):
    X=             -1.1619    Y=              3.1391    Z=             -0.8509  Tot=              3.4537
 Quadrupole moment (field-independent basis, Debye-Ang):
   XX=            -86.0468   YY=           -130.2773   ZZ=           -119.6132
   XY=             16.6825   XZ=             -4.6426   YZ=              2.8700

  Exact polarizability: 282.259  -1.740 206.120  -0.061 -26.415 113.325
 Approx polarizability: 396.051 -11.458 389.959   4.835 -51.092 211.990

                      1                      2                      3
                      A                      A                      A
 Frequencies --     13.8182                41.1536                75.9141
 Red. masses --      9.2891                 5.8956                 2.2064
 Frc consts  --      0.0010                 0.0059                 0.0075
 IR Inten    --      0.4678                 6.6655                 0.0540

                      4                      5                      6
                      A                      A                      A
 Frequencies --    105.2519               114.5997               122.8426
 Red. masses --      2.2200                 2.7100                 5.4172
 Frc consts  --      0.0145                 0.0210                 0.0482
 IR Inten    --      0.0832                 0.6878                 0.2306

                      7                      8                      9
                      A                      A                      A
 Frequencies --    146.2686               160.5422               190.5783
 Red. masses --      9.0593                 7.3999                 6.0194
 Frc consts  --      0.1142                 0.1124                 0.1288
 IR Inten    --      2.1428                 0.4065                 0.1726

                     10                     11                     12
                      A                      A                      A
 Frequencies --    222.0053               266.4093               276.3877
 Red. masses --      4.4135                 5.7976                 4.8397
 Frc consts  --      0.1282                 0.2424                 0.2178
 IR Inten    --      3.1116                 0.2304                 1.1736

                     13                     14                     15
                      A                      A                      A
 Frequencies --    314.6008               334.4231               381.4689
 Red. masses --     11.3426                 6.4625                 5.1807
 Frc consts  --      0.6614                 0.4258                 0.4442
 IR Inten    --      1.9377                 3.3141                 0.6258

                     16                     17                     18
                      A                      A                      A
 Frequencies --    390.5553               424.3264               431.2987
 Red. masses --     11.3156                 4.5780                 3.5816
 Frc consts  --      1.0169                 0.4857                 0.3925
 IR Inten    --     26.5765                 3.2332                 0.3088

                     19                     20                     21
                      A                      A                      A
 Frequencies --    437.4791               443.1129               481.9528
 Red. masses --      6.2283                 4.7717                11.8086
 Frc consts  --      0.7023                 0.5520                 1.6161
 IR Inten    --      0.4169                 0.8524                 0.1983

                     22                     23                     24
                      A                      A                      A
 Frequencies --    506.1880               590.1905               602.2342
 Red. masses --      3.9239                 5.6813                 5.3937
 Frc consts  --      0.5924                 1.1660                 1.1526
 IR Inten    --      3.4099                 2.8465                 0.6205

                     25                     26                     27
                      A                      A                      A
 Frequencies --    658.5933               667.2421               688.6597
 Red. masses --      6.9709                 8.5775                 5.3185
 Frc consts  --      1.7814                 2.2500                 1.4861
 IR Inten    --     14.8295                 4.7504                 0.9992

                     28                     29                     30
                      A                      A                      A
 Frequencies --    716.5381               725.1480               746.6009
 Red. masses --      7.5654                 2.9236                 3.7450
 Frc consts  --      2.2886                 0.9058                 1.2299
 IR Inten    --     16.4240                47.9981                24.3013

                     31                     32                     33
                      A                      A                      A
 Frequencies --    751.9479               780.1459               792.3396
 Red. masses --      7.3153                 8.3726                 4.8082
 Frc consts  --      2.4370                 3.0024                 1.7785
 IR Inten    --      5.5089                 8.2780                 0.8791

                     34                     35                     36
                      A                      A                      A
 Frequencies --    809.3359               844.5417               863.3426
 Red. masses --      1.8131                 7.6147                 1.4502
 Frc consts  --      0.6997                 3.2000                 0.6369
 IR Inten    --      8.2502                 9.8751                20.6372

                     37                     38                     39
                      A                      A                      A
 Frequencies --    895.9459               917.5218               974.6193
 Red. masses --      8.3623                 1.3762                 3.5510
 Frc consts  --      3.9549                 0.6826                 1.9874
 IR Inten    --     10.3977                 0.0516                23.9047

                     40                     41                     42
                      A                      A                      A
 Frequencies --   1001.3834              1002.7051              1005.8680
 Red. masses --      3.6929                 1.3506                 1.3774
 Frc consts  --      2.1818                 0.8000                 0.8211
 IR Inten    --     57.3502                 0.6744                 2.0526

                     43                     44                     45
                      A                      A                      A
 Frequencies --   1020.8160              1054.0289              1060.7099
 Red. masses --      1.3308                 2.0564                 1.5201
 Frc consts  --      0.8171                 1.3460                 1.0077
 IR Inten    --      0.0070                 4.5803                 2.6482

                     46                     47                     48
                      A                      A                      A
 Frequencies --   1068.6568              1116.4267              1167.0671
 Red. masses --      2.0785                 2.1452                 2.6930
 Frc consts  --      1.3985                 1.5753                 2.1611
 IR Inten    --     13.0052                 0.6749                 8.4406

                     49                     50                     51
                      A                      A                      A
 Frequencies --   1182.4520              1183.5894              1208.4014
 Red. masses --      1.6951                 1.2187                 2.4386
 Frc consts  --      1.3964                 1.0059                 2.0981
 IR Inten    --     17.6857                 7.5257                 1.5556

                     52                     53                     54
                      A                      A                      A
 Frequencies --   1233.3844              1277.1727              1302.4492
 Red. masses --      2.6016                 1.7983                 5.6837
 Frc consts  --      2.3318                 1.7282                 5.6807
 IR Inten    --     12.5692                 4.8244               603.0372

                     55                     56                     57
                      A                      A                      A
 Frequencies --   1316.9610              1340.8609              1361.5099
 Red. masses --      2.4779                 6.7859                 7.7817
 Frc consts  --      2.5321                 7.1882                 8.4990
 IR Inten    --     15.1894                94.6636                 6.1746

                     58                     59                     60
                      A                      A                      A
 Frequencies --   1409.0032              1419.0616              1431.0985
 Red. masses --      9.9764                 1.2696                 4.3344
 Frc consts  --     11.6694                 1.5064                 5.2302
 IR Inten    --     83.3680                 1.9223                37.5999

                     61                     62                     63
                      A                      A                      A
 Frequencies --   1481.4075              1482.8432              1493.7323
 Red. masses --      2.3617                 1.0611                 2.6476
 Frc consts  --      3.0537                 1.3746                 3.4805
 IR Inten    --      0.3868                27.4078                 3.7717

                     64                     65                     66
                      A                      A                      A
 Frequencies --   1502.4168              1509.1805              1596.8742
 Red. masses --      1.2352                 2.6244                 6.1446
 Frc consts  --      1.6427                 3.5217                 9.2317
 IR Inten    --      9.4506                 2.6961                20.3254

                     67                     68                     69
                      A                      A                      A
 Frequencies --   1612.8709              1615.6747              1627.0873
 Red. masses --     12.8004                 7.1372                 6.3542
 Frc consts  --     19.6188                10.9770                 9.9113
 IR Inten    --    283.3581                18.1166               107.9706

                     70                     71                     72
                      A                      A                      A
 Frequencies --   1631.0757              1723.7359              1737.6849
 Red. masses --      6.4101                12.5926                12.4998
 Frc consts  --     10.0477                22.0449                22.2379
 IR Inten    --      2.7631                53.9848               265.0298

                     73                     74                     75
                      A                      A                      A
 Frequencies --   3038.8469              3093.4297              3124.5734
 Red. masses --      1.0368                 1.1005                 1.1016
 Frc consts  --      5.6412                 6.2045                 6.3366
 IR Inten    --      7.0298                 2.5149                11.3937

                     76                     77                     78
                      A                      A                      A
 Frequencies --   3172.8412              3176.4282              3186.8512
 Red. masses --      1.0872                 1.0898                 1.0919
 Frc consts  --      6.4486                 6.4787                 6.5335
 IR Inten    --      2.8949                 6.9007                 8.6362

                     79                     80                     81
                      A                      A                      A
 Frequencies --   3201.9456              3204.4725              3204.7713
 Red. masses --      1.0928                 1.0938                 1.0943
 Frc consts  --      6.6008                 6.6176                 6.6217
 IR Inten    --      0.6850                11.0594                 1.7520

 - Thermochemistry -
 -------------------
 Temperature   298.150 Kelvin.  Pressure   1.00000 Atm.
 Atom     1 has atomic number  6 and mass  12.00000

 Molecular mass:   267.05316 amu.
 Principal axes and moments of inertia in atomic units:
                           1         2         3
     Eigenvalues --  2701.279006724.900129144.89612
           X            0.98735   0.15832   0.00870
           Y           -0.15535   0.95494   0.25288
           Z            0.03173  -0.25103   0.96746
 This molecule is an asymmetric top.
 Rotational symmetry number  1.
 Warning -- assumption of classical behavior for rotation
           may cause significant error
 Rotational temperatures (Kelvin)      0.03206     0.01288     0.00947
 Rotational constants (GHZ):           0.66811     0.26837     0.19735
 Zero-point vibrational energy     547222.6 (Joules/Mol)
                                  130.78934 (Kcal/Mol)
 Warning -- explicit consideration of  24 degrees of freedom as
           vibrations may cause significant error
 Vibrational temperatures:     19.88    59.21   109.22   151.43   164.88
          (Kelvin)            176.74   210.45   230.98   274.20   319.42
                              383.30   397.66   452.64   481.16   548.85
                              561.92   610.51   620.54   629.43   637.54
                              693.42   728.29   849.15   866.48   947.57
                              960.01   990.83  1030.94  1043.33  1074.19
                             1081.89  1122.46  1140.00  1164.45  1215.11
                             1242.16  1289.07  1320.11  1402.26  1440.77
                             1442.67  1447.22  1468.73  1516.51  1526.12
                             1537.56  1606.29  1679.15  1701.28  1702.92
                             1738.62  1774.57  1837.57  1873.93  1894.81
                             1929.20  1958.91  2027.24  2041.71  2059.03
                             2131.41  2133.48  2149.15  2161.64  2171.37
                             2297.55  2320.56  2324.60  2341.02  2346.75
                             2480.07  2500.14  4372.22  4450.76  4495.56
                             4565.01  4570.17  4585.17  4606.89  4610.52
                             4610.95

 Zero-point correction=                           0.208426 (Hartree/Particle)
 Thermal correction to Energy=                    0.224286
 Thermal correction to Enthalpy=                  0.225230
 Thermal correction to Gibbs Free Energy=         0.163597
 Sum of electronic and zero-point Energies=           -932.620103
 Sum of electronic and thermal Energies=              -932.604243
 Sum of electronic and thermal Enthalpies=            -932.603299
 Sum of electronic and thermal Free Energies=         -932.664932

                     E (Thermal)             CV                S
                      KCal/Mol        Cal/Mol-Kelvin    Cal/Mol-Kelvin
 Total                  140.742             60.693            129.719
 Electronic               0.000              0.000              0.000
 Translational            0.889              2.981             42.646
 Rotational               0.889              2.981             33.474
 Vibrational            138.964             54.731             53.599
 Vibration     1          0.593              1.986              7.369
 Vibration     2          0.594              1.981              5.203
 Vibration     3          0.599              1.965              3.994
 Vibration     4          0.605              1.945              3.355
 Vibration     5          0.608              1.937              3.189
 Vibration     6          0.610              1.930              3.055
 Vibration     7          0.617              1.907              2.720
 Vibration     8          0.622              1.891              2.543
 Vibration     9          0.634              1.853              2.222
 Vibration    10          0.648              1.808              1.943
 Vibration    11          0.672              1.735              1.619
 Vibration    12          0.678              1.717              1.556
 Vibration    13          0.702              1.646              1.338
 Vibration    14          0.716              1.607              1.239
 Vibration    15          0.751              1.510              1.033
 Vibration    16          0.758              1.490              0.998
 Vibration    17          0.786              1.417              0.877
 Vibration    18          0.792              1.402              0.854
 Vibration    19          0.798              1.388              0.835
 Vibration    20          0.803              1.376              0.817
 Vibration    21          0.838              1.290              0.705
 Vibration    22          0.861              1.236              0.643
 Vibration    23          0.948              1.053              0.467
 Vibration    24          0.961              1.027              0.446

 Optimization completed.
    -- Stationary point found.
 Normal termination of Gaussian 16 at Wed Dec 27 21:32:15 2023.
