 Gaussian 16, Revision A.03,
 Gaussian 16:  ES64L-G16RevA.03 25-Dec-2016

 ----------------------------------------------------------------------
 #P UB3LYP/6-311++G(d,p) nosym opt freq SCRF=(PCM,Solvent=n,n-DiMethylF
 ormamide)
 ----------------------------------------------------------------------

 -------
 Reduced
 -------
 Symbolic Z-matrix:
 Charge = -2 Multiplicity = 1

 SCF Done:  E(UB3LYP) =  -918.372518029     A.U. after   15 cycles
 SCF Done:  E(UB3LYP) =  -918.373060204     A.U. after   12 cycles
 SCF Done:  E(UB3LYP) =  -918.373039201     A.U. after   12 cycles
 SCF Done:  E(UB3LYP) =  -918.373056195     A.U. after   11 cycles
 SCF Done:  E(UB3LYP) =  -918.373129702     A.U. after   12 cycles
 SCF Done:  E(UB3LYP) =  -918.373108193     A.U. after   11 cycles
 SCF Done:  E(UB3LYP) =  -918.373144671     A.U. after   11 cycles
 SCF Done:  E(UB3LYP) =  -918.373144012     A.U. after   10 cycles
 SCF Done:  E(UB3LYP) =  -918.373145094     A.U. after   10 cycles
 SCF Done:  E(UB3LYP) =  -918.373146633     A.U. after    9 cycles
 SCF Done:  E(UB3LYP) =  -918.373146427     A.U. after    9 cycles
 SCF Done:  E(UB3LYP) =  -918.373146668     A.U. after    9 cycles
 Optimization completed.
    -- Stationary point found.
 Normal termination of Gaussian 16 at Sat Feb 10 23:28:14 2024.

 ----------------------------------------------------------------------
 #P Geom=AllCheck Guess=TCheck SCRF=Check GenChk UB3LYP/6-311++G(d,p) F
 req
 ----------------------------------------------------------------------

 Structure from the checkpoint file:  "197-an.chk"
 -------
 Reduced
 -------
 Charge = -2 Multiplicity = 1

                          Input orientation:
 ---------------------------------------------------------------------
 Center     Atomic      Atomic             Coordinates (Angstroms)
 Number     Number       Type             X           Y           Z
 ---------------------------------------------------------------------
      1          6           0       -4.018790   -1.013590    0.241882
      2          6           0       -2.629431   -0.420062    0.248412
      3          6           0       -2.456434    0.997608    0.424798
      4          6           0       -3.665014    1.886875    0.601149
      5          6           0       -1.186003    1.539876    0.430189
      6          8           0       -1.005301    2.890117    0.595141
      7          6           0       -0.012680    0.719982    0.263745
      8          6           0        1.287359    1.314155    0.274806
      9          8           0        1.438109    2.623763    0.443868
     10          6           0        2.405877    0.450056    0.098501
     11          6           0        3.733310    0.971365    0.093254
     12          6           0        4.832443    0.163641   -0.075777
     13          6           0        4.661028   -1.239730   -0.255167
     14          6           0        3.397326   -1.780366   -0.256095
     15          6           0        2.231590   -0.977675   -0.081203
     16          6           0        0.935551   -1.568750   -0.084093
     17          8           0        0.767013   -2.877820   -0.240488
     18          6           0       -0.185825   -0.698927    0.086922
     19          6           0       -1.524392   -1.232756    0.086045
     20          8           0       -1.673474   -2.586148   -0.084655
     21          1           0       -3.976015   -2.092819    0.100304
     22          1           0       -4.639039   -0.593116   -0.558923
     23          1           0       -4.551263   -0.817844    1.180412
     24          1           0       -4.259062    1.600150    1.477220
     25          1           0       -3.363644    2.926125    0.726610
     26          1           0       -4.340457    1.833933   -0.261364
     27          1           0        0.025327    2.997927    0.559860
     28          1           0        3.852773    2.040367    0.228262
     29          1           0        5.830569    0.590383   -0.074942
     30          1           0        5.529142   -1.877153   -0.390918
     31          1           0        3.256521   -2.846510   -0.393469
     32          1           0       -0.697116   -2.923059   -0.175840
 ---------------------------------------------------------------------

 SCF Done:  E(UB3LYP) =  -918.373146668     A.U. after    1 cycles

 Alpha  occ. eigenvalues --  -19.08965 -19.08963 -19.04072 -19.04070 -10.19262
 Alpha  occ. eigenvalues --  -10.19261 -10.18431 -10.18428 -10.15232 -10.15196
 Alpha  occ. eigenvalues --  -10.15127 -10.15121 -10.14651 -10.14650 -10.14472
 Alpha  occ. eigenvalues --  -10.14433 -10.14409 -10.14383 -10.14370 -10.14346
 Alpha  occ. eigenvalues --   -1.00823  -1.00649  -0.94333  -0.94058  -0.83316
 Alpha  occ. eigenvalues --   -0.81743  -0.77366  -0.73073  -0.72735  -0.72286
 Alpha  occ. eigenvalues --   -0.68105  -0.66409  -0.63014  -0.59623  -0.59112
 Alpha  occ. eigenvalues --   -0.55694  -0.54240  -0.50979  -0.48898  -0.47567
 Alpha  occ. eigenvalues --   -0.47259  -0.44180  -0.43464  -0.42544  -0.42106
 Alpha  occ. eigenvalues --   -0.40970  -0.40301  -0.39103  -0.38511  -0.38339
 Alpha  occ. eigenvalues --   -0.38266  -0.37757  -0.37071  -0.35674  -0.35606
 Alpha  occ. eigenvalues --   -0.35545  -0.34169  -0.33681  -0.32181  -0.32057
 Alpha  occ. eigenvalues --   -0.31918  -0.31365  -0.30401  -0.26640  -0.23554
 Alpha  occ. eigenvalues --   -0.23037  -0.22421  -0.21271  -0.21147  -0.18118
 Alpha  occ. eigenvalues --   -0.11481
 Alpha virt. eigenvalues --   -0.02288  -0.00235   0.00148   0.00442   0.01389
 Alpha virt. eigenvalues --    0.02217   0.02386   0.03397   0.04108   0.04159
 Alpha virt. eigenvalues --    0.04164   0.04534   0.05576   0.05949   0.06028

  Beta  occ. eigenvalues --  -19.08965 -19.08963 -19.04072 -19.04070 -10.19262
  Beta  occ. eigenvalues --  -10.19261 -10.18431 -10.18428 -10.15232 -10.15196
  Beta  occ. eigenvalues --  -10.15127 -10.15121 -10.14651 -10.14650 -10.14472
  Beta  occ. eigenvalues --  -10.14433 -10.14409 -10.14383 -10.14370 -10.14346
  Beta  occ. eigenvalues --   -1.00823  -1.00649  -0.94333  -0.94058  -0.83316
  Beta  occ. eigenvalues --   -0.81743  -0.77366  -0.73073  -0.72735  -0.72286
  Beta  occ. eigenvalues --   -0.68105  -0.66409  -0.63014  -0.59623  -0.59112
  Beta  occ. eigenvalues --   -0.55694  -0.54240  -0.50979  -0.48898  -0.47567
  Beta  occ. eigenvalues --   -0.47259  -0.44180  -0.43464  -0.42544  -0.42106
  Beta  occ. eigenvalues --   -0.40970  -0.40301  -0.39103  -0.38511  -0.38339
  Beta  occ. eigenvalues --   -0.38266  -0.37757  -0.37071  -0.35674  -0.35606
  Beta  occ. eigenvalues --   -0.35545  -0.34169  -0.33681  -0.32181  -0.32057
  Beta  occ. eigenvalues --   -0.31918  -0.31365  -0.30401  -0.26640  -0.23554
  Beta  occ. eigenvalues --   -0.23037  -0.22421  -0.21271  -0.21147  -0.18118
  Beta  occ. eigenvalues --   -0.11481
  Beta virt. eigenvalues --   -0.02288  -0.00235   0.00148   0.00442   0.01389
  Beta virt. eigenvalues --    0.02217   0.02386   0.03397   0.04108   0.04159
  Beta virt. eigenvalues --    0.04164   0.04534   0.05576   0.05949   0.06028

 Mulliken charges and spin densities:
               1          2
     1  C   -0.538858   0.000000
     2  C    0.447892   0.000000
     3  C    0.445752   0.000000
     4  C   -0.539081   0.000000
     5  C   -0.603849  -0.000000
     6  O   -0.533778   0.000000
     7  C    0.397150   0.000000
     8  C   -0.263507   0.000000
     9  O   -0.674423   0.000000
    10  C    0.152368  -0.000000
    11  C   -0.118852   0.000000
    12  C   -0.455422  -0.000000
    13  C   -0.455650   0.000000
    14  C   -0.119198  -0.000000
    15  C    0.152500  -0.000000
    16  C   -0.264949   0.000000
    17  O   -0.674282   0.000000
    18  C    0.397823  -0.000000
    19  C   -0.603500  -0.000000
    20  O   -0.533624   0.000000
    21  H    0.174965   0.000000
    22  H    0.141585  -0.000000
    23  H    0.141408  -0.000000
    24  H    0.141160   0.000000
    25  H    0.174873  -0.000000
    26  H    0.141797   0.000000
    27  H    0.420470  -0.000000
    28  H    0.153569  -0.000000
    29  H    0.160697   0.000000
    30  H    0.160648  -0.000000
    31  H    0.153970  -0.000000
    32  H    0.420348  -0.000000
 Sum of Mulliken charges =  -2.00000  -0.00000

 Dipole moment (field-independent basis, Debye):
    X=             -4.8493    Y=              0.5638    Z=             -1.3132  Tot=              5.0555
 Quadrupole moment (field-independent basis, Debye-Ang):
   XX=           -157.0628   YY=           -185.7985   ZZ=           -129.7624
   XY=             -3.7776   XZ=              0.1110   YZ=             -7.1591

  Exact polarizability: 599.833 -23.509 379.918 -25.886  28.424 178.385
 Approx polarizability: 645.654 -18.770 462.390 -26.602  36.023 201.832

                      1                      2                      3
                      A                      A                      A
 Frequencies --     56.6281                69.3693                74.9441
 Red. masses --      4.9689                 1.3583                 2.3789
 Frc consts  --      0.0094                 0.0039                 0.0079
 IR Inten    --     10.2812                 0.0389                 0.0210

                      4                      5                      6
                      A                      A                      A
 Frequencies --    109.2432               135.4315               136.7495
 Red. masses --      8.2670                 1.3485                 2.2804
 Frc consts  --      0.0581                 0.0146                 0.0251
 IR Inten    --      0.0118                 0.1051                 0.0610

                      7                      8                      9
                      A                      A                      A
 Frequencies --    154.4461               173.3018               193.5018
 Red. masses --      4.7934                 6.3566                 4.5141
 Frc consts  --      0.0674                 0.1125                 0.0996
 IR Inten    --      0.0501                 2.7057                 9.9607

                     10                     11                     12
                      A                      A                      A
 Frequencies --    211.1477               296.1103               308.5833
 Red. masses --      4.3174                 3.9929                 2.9050
 Frc consts  --      0.1134                 0.2063                 0.1630
 IR Inten    --      0.7634                 0.6758                20.7287

                     13                     14                     15
                      A                      A                      A
 Frequencies --    321.7761               338.9285               369.8561
 Red. masses --      4.8190                 4.9710                 6.2788
 Frc consts  --      0.2940                 0.3364                 0.5061
 IR Inten    --      8.4945                 6.9910                26.1189

                     16                     17                     18
                      A                      A                      A
 Frequencies --    385.3009               387.3792               398.3872
 Red. masses --      9.4483                 6.3599                 7.0068
 Frc consts  --      0.8264                 0.5623                 0.6552
 IR Inten    --      0.0865                 7.6322                 0.1034

                     19                     20                     21
                      A                      A                      A
 Frequencies --    414.5296               433.9968               453.5161
 Red. masses --      6.5441                 7.5798                 3.3078
 Frc consts  --      0.6625                 0.8412                 0.4008
 IR Inten    --      0.0419               202.1627                17.2940

                     22                     23                     24
                      A                      A                      A
 Frequencies --    488.4295               522.7021               531.4608
 Red. masses --     11.1704                 9.9353                 5.3830
 Frc consts  --      1.5701                 1.5993                 0.8958
 IR Inten    --      0.0284                42.2716                74.4229

                     25                     26                     27
                      A                      A                      A
 Frequencies --    534.1880               538.8069               630.6336
 Red. masses --      4.5697                 7.4449                 4.8821
 Frc consts  --      0.7683                 1.2734                 1.1440
 IR Inten    --      0.0084                20.2269                12.3327

                     28                     29                     30
                      A                      A                      A
 Frequencies --    633.7020               645.5767               695.6708
 Red. masses --      6.7574                 5.1488                 4.7291
 Frc consts  --      1.5988                 1.2643                 1.3485
 IR Inten    --     11.2229                 0.0025                 6.3372

                     31                     32                     33
                      A                      A                      A
 Frequencies --    724.3299               729.3593               731.5430
 Red. masses --      3.0343                 6.5199                 5.1530
 Frc consts  --      0.9380                 2.0435                 1.6248
 IR Inten    --     70.6494                 0.1310                 5.6968

                     34                     35                     36
                      A                      A                      A
 Frequencies --    758.8126               773.2162               785.9288
 Red. masses --      5.6166                 1.9969                 5.1944
 Frc consts  --      1.9054                 0.7034                 1.8904
 IR Inten    --     19.7483                57.0445                 0.2127

                     37                     38                     39
                      A                      A                      A
 Frequencies --    850.5845               885.0677               912.9840
 Red. masses --      1.5457                 5.2978                 6.4593
 Frc consts  --      0.6589                 2.4451                 3.1722
 IR Inten    --      0.0287                 0.4869               460.9131

                     40                     41                     42
                      A                      A                      A
 Frequencies --    944.7603               976.1426               986.3149
 Red. masses --      2.4001                 1.3340                 1.2513
 Frc consts  --      1.2622                 0.7489                 0.7172
 IR Inten    --     58.0204                 4.9809                 1.3637

                     43                     44                     45
                      A                      A                      A
 Frequencies --   1009.2686              1017.5726              1024.2049
 Red. masses --      2.3582                 1.0498                 1.0500
 Frc consts  --      1.4153                 0.6404                 0.6490
 IR Inten    --    111.3282               113.0481               143.7803

                     46                     47                     48
                      A                      A                      A
 Frequencies --   1033.2741              1036.0670              1052.9696
 Red. masses --      2.0205                 1.3948                 6.4204
 Frc consts  --      1.2710                 0.8822                 4.1942
 IR Inten    --      0.0748                 2.5502               540.3904

                     49                     50                     51
                      A                      A                      A
 Frequencies --   1054.1699              1087.9287              1105.7904
 Red. masses --      1.5076                 2.0884                 5.0352
 Frc consts  --      0.9871                 1.4564                 3.6276
 IR Inten    --      3.2111               221.8842                68.4274

                     52                     53                     54
                      A                      A                      A
 Frequencies --   1118.3209              1141.2666              1173.6972
 Red. masses --      2.1799                 1.4100                 1.9435
 Frc consts  --      1.6063                 1.0820                 1.5775
 IR Inten    --      5.4737               168.9919               274.6968

                     55                     56                     57
                      A                      A                      A
 Frequencies --   1226.5659              1241.4928              1250.0635
 Red. masses --      4.4156                 6.0857                 3.1939
 Frc consts  --      3.9140                 5.5265                 2.9406
 IR Inten    --    506.3046               105.2796                 9.2462

                     58                     59                     60
                      A                      A                      A
 Frequencies --   1289.3806              1308.4282              1365.7371
 Red. masses --      5.5797                 3.6605                 7.0166
 Frc consts  --      5.4654                 3.6923                 7.7110
 IR Inten    --    215.5890               546.2672               309.7953

                     61                     62                     63
                      A                      A                      A
 Frequencies --   1366.5912              1387.5823              1398.5029
 Red. masses --      2.4927                 5.2338                 1.2509
 Frc consts  --      2.7428                 5.9373                 1.4414
 IR Inten    --   1339.9234                 4.9089                20.0486

                     64                     65                     66
                      A                      A                      A
 Frequencies --   1401.3534              1421.4064              1440.7593
 Red. masses --      1.6258                 6.7265                 2.9346
 Frc consts  --      1.8811                 8.0072                 3.5891
 IR Inten    --    405.8089                36.1989               376.0315

                     67                     68                     69
                      A                      A                      A
 Frequencies --   1469.1365              1469.4901              1478.1437
 Red. masses --      2.0720                 1.1826                 1.0471
 Frc consts  --      2.6348                 1.5046                 1.3480
 IR Inten    --      0.9137                 1.3461                 0.0058

                     70                     71                     72
                      A                      A                      A
 Frequencies --   1487.1095              1491.3091              1515.2883
 Red. masses --      1.3142                 1.0472                 4.0579
 Frc consts  --      1.7123                 1.3722                 5.4896
 IR Inten    --      0.6317                21.7960               112.5179

                     73                     74                     75
                      A                      A                      A
 Frequencies --   1531.5090              1564.8071              1576.8126
 Red. masses --      4.6738                 2.3545                 4.1919
 Frc consts  --      6.4589                 3.3968                 6.1408
 IR Inten    --    149.1233               168.2947               130.5558

                     76                     77                     78
                      A                      A                      A
 Frequencies --   1611.8019              1657.6990              1686.2062
 Red. masses --      5.1818                 1.5608                 2.1859
 Frc consts  --      7.9315                 2.5271                 3.6618
 IR Inten    --     17.8527               423.5458                26.4506

                     79                     80                     81
                      A                      A                      A
 Frequencies --   2405.3644              2424.8310              2995.5701
 Red. masses --      1.0905                 1.0879                 1.0430
 Frc consts  --      3.7173                 3.7688                 5.5142
 IR Inten    --     83.4700              3256.4959                 1.8164

                     82                     83                     84
                      A                      A                      A
 Frequencies --   2999.4212              3025.9280              3030.0028
 Red. masses --      1.0420                 1.0996                 1.0994
 Frc consts  --      5.5230                 5.9320                 5.9467
 IR Inten    --    387.6524                 0.3056               112.6196

                     85                     86                     87
                      A                      A                      A
 Frequencies --   3118.5556              3121.1506              3143.0661
 Red. masses --      1.0936                 1.0930                 1.0848
 Frc consts  --      6.2662                 6.2733                 6.3140
 IR Inten    --     27.4777                16.5352                20.6469

                     88                     89                     90
                      A                      A                      A
 Frequencies --   3157.4628              3174.2516              3178.5821
 Red. masses --      1.0887                 1.0919                 1.0948
 Frc consts  --      6.3949                 6.4818                 6.5168
 IR Inten    --     24.6086                37.6883                80.7952

 - Thermochemistry -
 -------------------
 Temperature   298.150 Kelvin.  Pressure   1.00000 Atm.
 Atom     1 has atomic number  6 and mass  12.00000

 Molecular mass:   268.07356 amu.
 Principal axes and moments of inertia in atomic units:
                           1         2         3
     Eigenvalues --  2856.820086657.239899491.79748
           X            0.99135   0.12020   0.05268
           Y           -0.11255   0.98514  -0.12974
           Z           -0.06749   0.12269   0.99015
 This molecule is an asymmetric top.
 Rotational symmetry number  1.
 Warning -- assumption of classical behavior for rotation
           may cause significant error
 Rotational temperatures (Kelvin)      0.03032     0.01301     0.00913
 Rotational constants (GHZ):           0.63173     0.27109     0.19014
 Zero-point vibrational energy     621874.1 (Joules/Mol)
                                  148.63148 (Kcal/Mol)
 Warning -- explicit consideration of  26 degrees of freedom as
           vibrations may cause significant error
 Vibrational temperatures:     81.48    99.81   107.83   157.18   194.86
          (Kelvin)            196.75   222.21   249.34   278.41   303.79
                              426.04   443.98   462.96   487.64   532.14
                              554.36   557.35   573.19   596.42   624.42
                              652.51   702.74   752.05   764.65   768.58
                              775.22   907.34   911.76   928.84  1000.92
                             1042.15  1049.39  1052.53  1091.76  1112.49
                             1130.78  1223.80  1273.41  1313.58  1359.30
                             1404.45  1419.09  1452.11  1464.06  1473.60
                             1486.65  1490.67  1514.99  1516.72  1565.29
                             1590.99  1609.01  1642.03  1688.69  1764.75
                             1786.23  1798.56  1855.13  1882.54  1964.99
                             1966.22  1996.42  2012.13  2016.23  2045.09
                             2072.93  2113.76  2114.27  2126.72  2139.62
                             2145.66  2180.16  2203.50  2251.41  2268.68
                             2319.02  2385.06  2426.07  3460.78  3488.79
                             4309.96  4315.50  4353.64  4359.50  4486.91
                             4490.64  4522.17  4542.88  4567.04  4573.27

 Zero-point correction=                           0.236859 (Hartree/Particle)
 Thermal correction to Energy=                    0.253182
 Thermal correction to Enthalpy=                  0.254126
 Thermal correction to Gibbs Free Energy=         0.193679
 Sum of electronic and zero-point Energies=           -918.136287
 Sum of electronic and thermal Energies=              -918.119965
 Sum of electronic and thermal Enthalpies=            -918.119021
 Sum of electronic and thermal Free Energies=         -918.179468

                     E (Thermal)             CV                S
                      KCal/Mol        Cal/Mol-Kelvin    Cal/Mol-Kelvin
 Total                  158.874             64.871            127.222
 Electronic               0.000              0.000              0.000
 Translational            0.889              2.981             42.657
 Rotational               0.889              2.981             33.556
 Vibrational            157.097             58.909             51.009
 Vibration     1          0.596              1.975              4.571
 Vibration     2          0.598              1.969              4.171
 Vibration     3          0.599              1.966              4.019
 Vibration     4          0.606              1.942              3.282
 Vibration     5          0.613              1.918              2.867
 Vibration     6          0.614              1.917              2.849
 Vibration     7          0.620              1.898              2.617
 Vibration     8          0.627              1.875              2.399
 Vibration     9          0.635              1.849              2.194
 Vibration    10          0.643              1.824              2.034
 Vibration    11          0.690              1.681              1.439
 Vibration    12          0.698              1.657              1.370
 Vibration    13          0.707              1.632              1.301
 Vibration    14          0.719              1.598              1.217
 Vibration    15          0.742              1.534              1.080
 Vibration    16          0.754              1.502              1.018
 Vibration    17          0.756              1.497              1.010
 Vibration    18          0.765              1.474              0.969
 Vibration    19          0.778              1.439              0.911
 Vibration    20          0.795              1.396              0.846
 Vibration    21          0.812              1.353              0.785
 Vibration    22          0.844              1.276              0.688
 Vibration    23          0.878              1.200              0.604
 Vibration    24          0.886              1.180              0.584
 Vibration    25          0.889              1.174              0.578
 Vibration    26          0.894              1.164              0.568

                           ! Non-Optimized Parameters !
 Normal termination of Gaussian 16 at Sun Feb 11 01:38:56 2024.
