 Gaussian 16, Revision A.03,
 Gaussian 16:  ES64L-G16RevA.03 25-Dec-2016

 --------------------------------------
 #P UB3LYP/6-311++G(d,p) nosym opt freq
 --------------------------------------

 -------
 Reduced
 -------
 Symbolic Z-matrix:
 Charge = -2 Multiplicity = 1

 SCF Done:  E(UB3LYP) =  -839.469049734     A.U. after   21 cycles
 Optimization completed.
    -- Stationary point found.
 Normal termination of Gaussian 16 at Sun Jan  7 05:06:26 2024.

 ----------------------------------------------------------------------
 #P Geom=AllCheck Guess=TCheck SCRF=Check GenChk UB3LYP/6-311++G(d,p) F
 req
 ----------------------------------------------------------------------

 Structure from the checkpoint file:  "184-an.chk"
 -------
 Reduced
 -------
 Charge = -2 Multiplicity = 1

                          Input orientation:
 ---------------------------------------------------------------------
 Center     Atomic      Atomic             Coordinates (Angstroms)
 Number     Number       Type             X           Y           Z
 ---------------------------------------------------------------------
      1          6           0        4.848259   -2.911314   -0.315971
      2          6           0        5.581522   -2.034220   -1.077802
      3          6           0        5.008527   -0.804498   -1.520171
      4          6           0        3.492452   -2.632022    0.062553
      5          6           0        2.908485   -1.375608   -0.389872
      6          6           0        3.703179   -0.509295   -1.169883
      7          6           0        2.741529   -3.516189    0.835155
      8          6           0        1.404305   -3.200499    1.186653
      9          6           0        0.803208   -1.962810    0.751146
     10          6           0        1.544272   -0.999901   -0.060090
     11          6           0        0.627321   -4.119978    1.988134
     12          6           0       -0.688926   -3.764774    2.310089
     13          6           0       -0.534277   -1.676603    1.118815
     14          6           0       -1.273551   -2.563161    1.888026
     15          8           0        3.310230   -4.708501    1.259104
     16          8           0        1.027248    0.096743   -0.452017
     17          8           0        1.086480   -5.277183    2.435378
     18          1           0        5.282349   -3.846723    0.021263
     19          1           0        6.608436   -2.279736   -1.346029
     20          1           0        5.592546   -0.112739   -2.123335
     21          1           0        3.231733    0.416440   -1.487064
     22          1           0        2.584105   -5.153821    1.783832
     23          8           0       -1.379783   -4.693059    3.082746
     24          1           0       -0.953673   -0.738395    0.774709
     25          1           0       -2.301239   -2.344148    2.171105
     26          1           0       -0.686498   -5.381576    3.184595
 ---------------------------------------------------------------------

 SCF Done:  E(UB3LYP) =  -839.469049734     A.U. after    1 cycles

 Alpha  occ. eigenvalues --  -18.89149 -18.85967 -18.81438 -18.79123  -9.95342
 Alpha  occ. eigenvalues --   -9.95287  -9.95264  -9.94696  -9.93710  -9.92842
 Alpha  occ. eigenvalues --   -9.92783  -9.92599  -9.91708  -9.91606  -9.91259
 Alpha  occ. eigenvalues --   -9.90664  -9.90327  -9.90266  -0.80016  -0.76981
 Alpha  occ. eigenvalues --   -0.71132  -0.70933  -0.60449  -0.57866  -0.53054
 Alpha  occ. eigenvalues --   -0.50370  -0.47809  -0.46185  -0.41607  -0.38290
 Alpha  occ. eigenvalues --   -0.36369  -0.33213  -0.31696  -0.28801  -0.26642
 Alpha  occ. eigenvalues --   -0.25563  -0.24756  -0.21281  -0.21111  -0.18861
 Alpha  occ. eigenvalues --   -0.18628  -0.17674  -0.16623  -0.15234  -0.14687
 Alpha  occ. eigenvalues --   -0.14287  -0.13730  -0.12694  -0.11616  -0.10970
 Alpha  occ. eigenvalues --   -0.10257  -0.09828  -0.09011  -0.07252  -0.07131
 Alpha  occ. eigenvalues --   -0.04753  -0.01639  -0.00430   0.00250   0.02151
 Alpha  occ. eigenvalues --    0.03667   0.06165   0.11724
 Alpha virt. eigenvalues --    0.15822   0.17521   0.17964   0.19702   0.19937
 Alpha virt. eigenvalues --    0.20385   0.21037   0.21813   0.23185   0.24193
 Alpha virt. eigenvalues --    0.25007   0.25963   0.26257   0.26732   0.27206

  Beta  occ. eigenvalues --  -18.89149 -18.85967 -18.81438 -18.79123  -9.95342
  Beta  occ. eigenvalues --   -9.95287  -9.95264  -9.94696  -9.93710  -9.92842
  Beta  occ. eigenvalues --   -9.92783  -9.92599  -9.91708  -9.91606  -9.91259
  Beta  occ. eigenvalues --   -9.90664  -9.90327  -9.90266  -0.80016  -0.76981
  Beta  occ. eigenvalues --   -0.71132  -0.70933  -0.60449  -0.57866  -0.53054
  Beta  occ. eigenvalues --   -0.50370  -0.47809  -0.46185  -0.41607  -0.38290
  Beta  occ. eigenvalues --   -0.36369  -0.33213  -0.31696  -0.28801  -0.26642
  Beta  occ. eigenvalues --   -0.25563  -0.24756  -0.21281  -0.21111  -0.18861
  Beta  occ. eigenvalues --   -0.18628  -0.17674  -0.16623  -0.15234  -0.14687
  Beta  occ. eigenvalues --   -0.14287  -0.13730  -0.12694  -0.11616  -0.10970
  Beta  occ. eigenvalues --   -0.10257  -0.09828  -0.09011  -0.07252  -0.07131
  Beta  occ. eigenvalues --   -0.04753  -0.01639  -0.00430   0.00250   0.02151
  Beta  occ. eigenvalues --    0.03667   0.06165   0.11724
  Beta virt. eigenvalues --    0.15822   0.17521   0.17964   0.19702   0.19937
  Beta virt. eigenvalues --    0.20385   0.21037   0.21813   0.23185   0.24193
  Beta virt. eigenvalues --    0.25007   0.25963   0.26257   0.26732   0.27206

 Mulliken charges and spin densities:
               1          2
     1  C   -0.128622  -0.000000
     2  C   -0.425943  -0.000000
     3  C   -0.487117   0.000000
     4  C    0.256470   0.000000
     5  C   -0.006351   0.000000
     6  C    0.000295  -0.000000
     7  C   -0.095947  -0.000000
     8  C    0.767992   0.000000
     9  C    0.680546  -0.000000
    10  C   -0.704652   0.000000
    11  C   -0.855612  -0.000000
    12  C   -0.434838   0.000000
    13  C   -0.030276  -0.000000
    14  C    0.124132   0.000000
    15  O   -0.464077   0.000000
    16  O   -0.475275  -0.000000
    17  O   -0.619007   0.000000
    18  H    0.115002   0.000000
    19  H    0.073903  -0.000000
    20  H    0.073431  -0.000000
    21  H    0.125271   0.000000
    22  H    0.383352  -0.000000
    23  O   -0.345419   0.000000
    24  H    0.121542  -0.000000
    25  H    0.097968   0.000000
    26  H    0.253232  -0.000000
 Sum of Mulliken charges =  -2.00000  -0.00000

 Dipole moment (field-independent basis, Debye):
    X=            -15.7840    Y=             24.8002    Z=             -7.2817  Tot=             30.2855
 Quadrupole moment (field-independent basis, Debye-Ang):
   XX=           -187.2792   YY=           -222.4618   ZZ=           -143.9722
   XY=             34.3947   XZ=              8.9245   YZ=             43.8897

  Exact polarizability: 328.651  18.101 228.791 -91.860 -66.704 190.761
 Approx polarizability: 552.109   4.542 416.980-148.409-130.861 307.574

                      1                      2                      3
                      A                      A                      A
 Frequencies --     57.1068                92.3223               132.7713
 Red. masses --      7.2863                 6.3135                 7.5501
 Frc consts  --      0.0140                 0.0317                 0.0784
 IR Inten    --      1.2689                 1.6830                 1.2270

                      4                      5                      6
                      A                      A                      A
 Frequencies --    143.1977               184.8616               202.8902
 Red. masses --      6.1508                 6.8185                 6.0711
 Frc consts  --      0.0743                 0.1373                 0.1472
 IR Inten    --      0.0050                 0.2279                 4.0673

                      7                      8                      9
                      A                      A                      A
 Frequencies --    268.3009               288.6135               317.3113
 Red. masses --      5.1584                 6.1585                 6.7053
 Frc consts  --      0.2188                 0.3022                 0.3978
 IR Inten    --      0.2188                 2.0902                 1.5923

                     10                     11                     12
                      A                      A                      A
 Frequencies --    334.3328               348.0032               372.3876
 Red. masses --      8.6570                 8.0802                 6.9516
 Frc consts  --      0.5701                 0.5765                 0.5680
 IR Inten    --      0.0843                21.7291                 0.0089

                     13                     14                     15
                      A                      A                      A
 Frequencies --    386.9632               400.1866               445.7835
 Red. masses --      6.6742                 9.0636                 3.4245
 Frc consts  --      0.5888                 0.8552                 0.4010
 IR Inten    --     29.5083                 8.6402                 3.4793

                     16                     17                     18
                      A                      A                      A
 Frequencies --    481.4042               493.7622               497.6378
 Red. masses --     10.2314                 8.9104                 3.9501
 Frc consts  --      1.3970                 1.2799                 0.5764
 IR Inten    --      2.8214                 1.9984                17.4154

                     19                     20                     21
                      A                      A                      A
 Frequencies --    563.8827               568.2974               615.7656
 Red. masses --      7.2649                 4.5949                 7.0833
 Frc consts  --      1.3610                 0.8743                 1.5824
 IR Inten    --     16.7561                 1.3001                 8.9313

                     22                     23                     24
                      A                      A                      A
 Frequencies --    622.1391               660.4051               672.2705
 Red. masses --      4.2534                 6.8216                 1.3736
 Frc consts  --      0.9700                 1.7529                 0.3658
 IR Inten    --      1.4627                10.9451                 0.8948

                     25                     26                     27
                      A                      A                      A
 Frequencies --    689.7702               692.6794               702.4731
 Red. masses --      1.3156                 6.0563                 2.9947
 Frc consts  --      0.3688                 1.7121                 0.8707
 IR Inten    --    161.2780                14.4024                 1.9671

                     28                     29                     30
                      A                      A                      A
 Frequencies --    738.5624               745.9496               755.4899
 Red. masses --      2.2782                 2.4893                 7.3873
 Frc consts  --      0.7322                 0.8161                 2.4842
 IR Inten    --      7.5841                 1.9705                23.9974

                     31                     32                     33
                      A                      A                      A
 Frequencies --    779.4785               811.1299               830.1882
 Red. masses --      1.7491                 4.8832                 7.2639
 Frc consts  --      0.6261                 1.8929                 2.9497
 IR Inten    --     24.9442                 0.0064                59.6816

                     34                     35                     36
                      A                      A                      A
 Frequencies --    870.8855               886.8203               901.5050
 Red. masses --      1.0539                 1.2394                 7.2039
 Frc consts  --      0.4710                 0.5743                 3.4495
 IR Inten    --     60.7221                 0.1455                15.7948

                     37                     38                     39
                      A                      A                      A
 Frequencies --    930.0570               955.5539              1006.5177
 Red. masses --      1.2472                 1.3250                 2.7893
 Frc consts  --      0.6356                 0.7128                 1.6649
 IR Inten    --      0.5222                 1.6146                36.2286

                     40                     41                     42
                      A                      A                      A
 Frequencies --   1019.1217              1033.0104              1082.5162
 Red. masses --      3.3402                 3.9580                 2.4964
 Frc consts  --      2.0439                 2.4885                 1.7236
 IR Inten    --    143.7252                89.9713                53.9580

                     43                     44                     45
                      A                      A                      A
 Frequencies --   1120.9331              1141.5357              1160.3060
 Red. masses --      1.8711                 1.4065                 1.8663
 Frc consts  --      1.3852                 1.0799                 1.4804
 IR Inten    --     52.9662                65.1242                 7.3416

                     46                     47                     48
                      A                      A                      A
 Frequencies --   1193.9027              1226.9654              1245.3094
 Red. masses --      1.7915                 3.0577                 2.2694
 Frc consts  --      1.5045                 2.7121                 2.0735
 IR Inten    --      4.7505               206.9080               251.8115

                     49                     50                     51
                      A                      A                      A
 Frequencies --   1262.2604              1327.5452              1329.8193
 Red. masses --      2.4539                 5.8506                 4.2599
 Frc consts  --      2.3035                 6.0750                 4.4385
 IR Inten    --     52.4732                92.4076                30.2013

                     52                     53                     54
                      A                      A                      A
 Frequencies --   1360.2788              1385.0450              1402.8424
 Red. masses --      4.4463                 4.4981                 2.3387
 Frc consts  --      4.8473                 5.0840                 2.7117
 IR Inten    --     95.6688               146.8466               163.0508

                     55                     56                     57
                      A                      A                      A
 Frequencies --   1427.8274              1448.2673              1487.0827
 Red. masses --      2.8752                 3.3382                 2.9209
 Frc consts  --      3.4536                 4.1253                 3.8058
 IR Inten    --    550.1191               338.7755                67.7634

                     58                     59                     60
                      A                      A                      A
 Frequencies --   1493.4325              1503.9860              1537.0086
 Red. masses --      2.5715                 6.7841                 4.7057
 Frc consts  --      3.3792                 9.0413                 6.5498
 IR Inten    --    131.2300               382.6390                27.8955

                     61                     62                     63
                      A                      A                      A
 Frequencies --   1571.2507              1591.4051              1614.3761
 Red. masses --      4.8604                 4.6643                 3.9503
 Frc consts  --      7.0700                 6.9599                 6.0658
 IR Inten    --      3.4805               338.5294                 1.5877

                     64                     65                     66
                      A                      A                      A
 Frequencies --   1641.7557              3075.3801              3090.6968
 Red. masses --      2.4118                 1.0726                 1.0832
 Frc consts  --      3.8301                 5.9771                 6.0963
 IR Inten    --      6.9330               571.8715                49.1464

                     67                     68                     69
                      A                      A                      A
 Frequencies --   3115.7411              3118.2188              3153.9115
 Red. masses --      1.0872                 1.0892                 1.0909
 Frc consts  --      6.2186                 6.2398                 6.3937
 IR Inten    --     66.4612                81.7086                42.4667

                     70                     71                     72
                      A                      A                      A
 Frequencies --   3164.4710              3176.3587              3486.7045
 Red. masses --      1.0911                 1.0903                 1.0637
 Frc consts  --      6.4373                 6.4814                 7.6190
 IR Inten    --     45.8002                26.7726                59.3542

 - Thermochemistry -
 -------------------
 Temperature   298.150 Kelvin.  Pressure   1.00000 Atm.
 Atom     1 has atomic number  6 and mass  12.00000

 Molecular mass:   240.04226 amu.
 Principal axes and moments of inertia in atomic units:
                           1         2         3
     Eigenvalues --  2075.646675639.037357714.68396
           X            0.75763  -0.56602   0.32498
           Y            0.40226   0.79705   0.45044
           Z           -0.51398  -0.21054   0.83156
 This molecule is an asymmetric top.
 Rotational symmetry number  1.
 Warning -- assumption of classical behavior for rotation
           may cause significant error
 Rotational temperatures (Kelvin)      0.04173     0.01536     0.01123
 Rotational constants (GHZ):           0.86948     0.32004     0.23394
 Zero-point vibrational energy     481119.6 (Joules/Mol)
                                  114.99036 (Kcal/Mol)
 Warning -- explicit consideration of  21 degrees of freedom as
           vibrations may cause significant error
 Vibrational temperatures:     82.16   132.83   191.03   206.03   265.97
          (Kelvin)            291.91   386.03   415.25   456.54   481.03
                              500.70   535.78   556.75   575.78   641.38
                              692.63   710.41   715.99   811.30   817.65
                              885.95   895.12   950.18   967.25   992.43
                              996.61  1010.70  1062.63  1073.26  1086.98
                             1121.50  1167.03  1194.46  1253.01  1275.94
                             1297.06  1338.14  1374.83  1448.15  1466.29
                             1486.27  1557.50  1612.77  1642.42  1669.42
                             1717.76  1765.33  1791.72  1816.11  1910.04
                             1913.31  1957.14  1992.77  2018.38  2054.33
                             2083.73  2139.58  2148.72  2163.90  2211.41
                             2260.68  2289.68  2322.73  2362.12  4424.79
                             4446.82  4482.86  4486.42  4537.78  4552.97
                             4570.07  5016.59

 Zero-point correction=                           0.183249 (Hartree/Particle)
 Thermal correction to Energy=                    0.196463
 Thermal correction to Enthalpy=                  0.197408
 Thermal correction to Gibbs Free Energy=         0.143942
 Sum of electronic and zero-point Energies=           -839.285801
 Sum of electronic and thermal Energies=              -839.272586
 Sum of electronic and thermal Enthalpies=            -839.271642
 Sum of electronic and thermal Free Energies=         -839.325107

                     E (Thermal)             CV                S
                      KCal/Mol        Cal/Mol-Kelvin    Cal/Mol-Kelvin
 Total                  123.283             54.585            112.527
 Electronic               0.000              0.000              0.000
 Translational            0.889              2.981             42.328
 Rotational               0.889              2.981             32.868
 Vibrational            121.505             48.623             37.331
 Vibration     1          0.596              1.975              4.555
 Vibration     2          0.602              1.955              3.610
 Vibration     3          0.613              1.921              2.906
 Vibration     4          0.616              1.910              2.761
 Vibration     5          0.631              1.861              2.279
 Vibration     6          0.639              1.836              2.107
 Vibration     7          0.673              1.731              1.607
 Vibration     8          0.685              1.695              1.482
 Vibration     9          0.704              1.641              1.324
 Vibration    10          0.716              1.607              1.239
 Vibration    11          0.726              1.579              1.175
 Vibration    12          0.744              1.529              1.070
 Vibration    13          0.755              1.498              1.012
 Vibration    14          0.766              1.470              0.962
 Vibration    15          0.805              1.370              0.809
 Vibration    16          0.838              1.291              0.706
 Vibration    17          0.849              1.264              0.674
 Vibration    18          0.853              1.255              0.664
 Vibration    19          0.920              1.109              0.516
 Vibration    20          0.924              1.100              0.508
 Vibration    21          0.975              0.999              0.423

 Optimization completed.
    -- Stationary point found.
 Normal termination of Gaussian 16 at Sun Jan  7 06:11:12 2024.
