 Q-Chem 5.4, Q-Chem, Inc., Pleasanton, CA (2021)
 Q-Chem 5.4.0 for Intel X86 EM64T Linux

User input:
--------------------------------------------------------------
$molecule
-2 1
C                  4.8482590000     -2.9113140000     -0.3159710000
C                  5.5815220000     -2.0342200000     -1.0778020000
C                  5.0085270000     -0.8044980000     -1.5201710000
C                  3.4924520000     -2.6320220000      0.0625530000
C                  2.9084850000     -1.3756080000     -0.3898720000
C                  3.7031790000     -0.5092950000     -1.1698830000
C                  2.7415290000     -3.5161890000      0.8351550000
C                  1.4043050000     -3.2004990000      1.1866530000
C                  0.8032080000     -1.9628100000      0.7511460000
C                  1.5442720000     -0.9999010000     -0.0600900000
C                  0.6273210000     -4.1199780000      1.9881340000
C                 -0.6889260000     -3.7647740000      2.3100890000
C                 -0.5342770000     -1.6766030000      1.1188150000
C                 -1.2735510000     -2.5631610000      1.8880260000
O                  3.3102300000     -4.7085010000      1.2591040000
O                  1.0272480000      0.0967430000     -0.4520170000
O                  1.0864800000     -5.2771830000      2.4353780000
H                  5.2823490000     -3.8467230000      0.0212630000
H                  6.6084360000     -2.2797360000     -1.3460290000
H                  5.5925460000     -0.1127390000     -2.1233350000
H                  3.2317330000      0.4164400000     -1.4870640000
H                  2.5841050000     -5.1538210000      1.7838320000
O                 -1.3797830000     -4.6930590000      3.0827460000
H                 -0.9536730000     -0.7383950000      0.7747090000
H                 -2.3012390000     -2.3441480000      2.1711050000
H                 -0.6864980000     -5.3815760000      3.1845950000
$end
$rem
MAX_SCF_CYCLES=200
BASIS  =  6-311++G(d,p)
GUI  =  2
JOB_TYPE  =  SP
METHOD  =  B3LYP
SOLVENT_METHOD = COSMO
$end
$solvent
dielectric 37.219
opticaldielectric 1.43
$end

--------------------------------------------------------------

             Standard Nuclear Orientation (Angstroms)
    I     Atom           X                Y                Z
 ----------------------------------------------------------------
    1      C       2.6871526574    -1.6483900023     0.0000353135
    2      C       3.9824114545    -1.1905039741    -0.0000999495
    3      C       4.2558360142     0.2100204946    -0.0002488124
    4      C       1.5683704649    -0.7496000014    -0.0000005355
    5      C       1.8490809472     0.6806040397    -0.0000540317
    6      C       3.1962961630     1.0994895478    -0.0001996088
    7      C       0.2513300766    -1.2056209153     0.0001663969
    8      C      -0.8250934472    -0.2822079861     0.0000910167
    9      C      -0.5734964768     1.1389031903     0.0001044846
   10      C       0.7868117990     1.6718523773     0.0000757684
   11      C      -2.1907220832    -0.7582079357    -0.0001026369
   12      C      -3.2204434411     0.1915314986    -0.0001290148
   13      C      -1.6700109301     2.0353501320     0.0001110801
   14      C      -2.9773644006     1.5716437625     0.0001668430
   15      O      -0.0012070228    -2.5698006756     0.0004534845
   16      O       1.0247225392     2.9236299656     0.0001179030
   17      O      -2.5249799683    -2.0381490457    -0.0002293325
   18      H       2.4774395641    -2.7128951885     0.0001879454
   19      H       4.8069581963    -1.9024722714    -0.0000140417
   20      H       5.2829332417     0.5684710088    -0.0004263411
   21      H       3.3634155954     2.1727656085    -0.0001743739
   22      H      -0.9995619534    -2.6345639018     0.0002319228
   23      O      -4.5090359037    -0.3333729889    -0.0002688566
   24      H      -1.4444599431     3.0953798104     0.0002799636
   25      H      -3.8205446289     2.2596046166     0.0002416853
   26      H      -4.3031300135    -1.2939330931    -0.0004102282
 ----------------------------------------------------------------

   12    -839.4691105518      5.67e-06  Convergence criterion met
 Total energy in the final basis set =     -839.4691105518
    6    -839.7299859668      2.71e-06  Convergence criterion met
 Total energy in the final basis set =     -839.7299859668

                    Orbital Energies (a.u.)
 --------------------------------------------------------------

 Alpha MOs
 -- Occupied --
-19.1266 -19.1067 -19.0603 -19.0412 -10.1970 -10.1962 -10.1922 -10.1902
-10.1579 -10.1557 -10.1554 -10.1548 -10.1542 -10.1517 -10.1513 -10.1457
-10.1456 -10.1416  -1.0372  -1.0170  -0.9628  -0.9558  -0.8390  -0.8181
 -0.7666  -0.7354  -0.7141  -0.7038  -0.6537  -0.6167  -0.6008  -0.5655
 -0.5545  -0.5215  -0.5053  -0.4892  -0.4837  -0.4513  -0.4441  -0.4223
 -0.4191  -0.4104  -0.4066  -0.3956  -0.3865  -0.3839  -0.3741  -0.3692
 -0.3567  -0.3552  -0.3375  -0.3360  -0.3236  -0.3168  -0.3112  -0.2924
 -0.2561  -0.2441  -0.2400  -0.2177  -0.2147  -0.1844  -0.1261

          Ground-State Mulliken Net Atomic Charges

     Atom                 Charge (a.u.)
  ----------------------------------------
      1 C                    -0.135506
      2 C                    -0.450908
      3 C                    -0.537329
      4 C                     0.098810
      5 C                    -0.140747
      6 C                     0.000979
      7 C                    -0.051558
      8 C                     0.693145
      9 C                     0.536628
     10 C                    -0.354824
     11 C                    -0.554703
     12 C                    -0.439911
     13 C                    -0.111411
     14 C                    -0.055512
     15 O                    -0.518805
     16 O                    -0.636340
     17 O                    -0.720266
     18 H                     0.166573
     19 H                     0.185243
     20 H                     0.182626
     21 H                     0.157324
     22 H                     0.404223
     23 O                    -0.384008
     24 H                     0.155909
     25 H                     0.198835
     26 H                     0.311534
  ----------------------------------------
  Sum of atomic charges =    -2.000000

                    Cartesian Multipole Moments
 -----------------------------------------------------------------
    Charge (ESU x 10^10)
                -9.6064
    Dipole Moment (Debye)
         X       4.2769      Y      -2.4782      Z      -0.0020
       Tot       4.9430
    Quadrupole Moments (Debye-Ang)
        XX    -161.0168     XY     -15.1139     YY    -156.1079
        XZ      -0.0045     YZ      -0.0005     ZZ    -115.8960

 Total job time:  71.95s(wall), 538.98s(cpu)
        *  Thank you very much for using Q-Chem.  Have a nice day.  *
