 Q-Chem 5.4, Q-Chem, Inc., Pleasanton, CA (2021)
 Q-Chem 5.4.0 for Intel X86 EM64T Linux

User input:
--------------------------------------------------------------
$molecule
0 1
C                  3.4507230000      5.4901110000     -0.2766330000
C                  2.2402640000      4.6117650000     -0.2056050000
C                  2.2562720000      3.5179100000      0.5874160000
C                  3.4601330000      3.2248750000      1.4266970000
C                  4.6807400000      4.0831090000      1.3300930000
C                  4.6700050000      5.1626560000      0.5185360000
O                  3.4408990000      6.4792340000     -0.9949960000
O                  3.4347780000      2.2757310000      2.1997990000
C                  5.8245630000      6.1051600000      0.3425820000
C                  5.8594900000      3.6765810000      2.1756220000
C                  1.0925900000      5.0522200000     -1.0682600000
C                  1.1195020000      2.5349570000      0.7242630000
C                  0.2963700000      2.7545210000      2.0040070000
C                 -0.9348940000      1.8613330000      2.0617800000
O                 -1.3851240000      1.2513060000      1.1334150000
O                 -1.5550880000      1.8076920000      3.2735500000
H                  6.6847400000      5.8152000000      0.9428130000
H                  5.5305640000      7.1233180000      0.6127870000
H                  6.1240220000      6.1478840000     -0.7084000000
H                  5.6212330000      2.7807110000      2.7457350000
H                  6.1355250000      4.4691920000      2.8768740000
H                  6.7357720000      3.4691300000      1.5549450000
H                  0.8529130000      6.0991270000     -0.8672670000
H                  0.1996540000      4.4498000000     -0.9173070000
H                  1.3721770000      5.0064280000     -2.1251270000
H                  1.5310360000      1.5241610000      0.7534820000
H                  0.4568990000      2.5826460000     -0.1374790000
H                 -0.0540820000      3.7928110000      2.0627400000
H                  0.9222880000      2.5788920000      2.8841110000
H                 -1.0626030000      2.3152690000      3.9301470000
$end
$rem
MAX_SCF_CYCLES=200
BASIS  =  6-311++G(d,p)
GUI  =  2
JOB_TYPE  =  SP
METHOD  =  B3LYP
SOLVENT_METHOD = PCM
$end
$pcm
theory = CPCM
$end
$solvent
dielectric 37.219
opticaldielectric 1.43
$end

--------------------------------------------------------------

             Standard Nuclear Orientation (Angstroms)
    I     Atom           X                Y                Z
 ----------------------------------------------------------------
    1      C       3.4507230000     5.4901110000    -0.2766330000
    2      C       2.2402640000     4.6117650000    -0.2056050000
    3      C       2.2562720000     3.5179100000     0.5874160000
    4      C       3.4601330000     3.2248750000     1.4266970000
    5      C       4.6807400000     4.0831090000     1.3300930000
    6      C       4.6700050000     5.1626560000     0.5185360000
    7      O       3.4408990000     6.4792340000    -0.9949960000
    8      O       3.4347780000     2.2757310000     2.1997990000
    9      C       5.8245630000     6.1051600000     0.3425820000
   10      C       5.8594900000     3.6765810000     2.1756220000
   11      C       1.0925900000     5.0522200000    -1.0682600000
   12      C       1.1195020000     2.5349570000     0.7242630000
   13      C       0.2963700000     2.7545210000     2.0040070000
   14      C      -0.9348940000     1.8613330000     2.0617800000
   15      O      -1.3851240000     1.2513060000     1.1334150000
   16      O      -1.5550880000     1.8076920000     3.2735500000
   17      H       6.6847400000     5.8152000000     0.9428130000
   18      H       5.5305640000     7.1233180000     0.6127870000
   19      H       6.1240220000     6.1478840000    -0.7084000000
   20      H       5.6212330000     2.7807110000     2.7457350000
   21      H       6.1355250000     4.4691920000     2.8768740000
   22      H       6.7357720000     3.4691300000     1.5549450000
   23      H       0.8529130000     6.0991270000    -0.8672670000
   24      H       0.1996540000     4.4498000000    -0.9173070000
   25      H       1.3721770000     5.0064280000    -2.1251270000
   26      H       1.5310360000     1.5241610000     0.7534820000
   27      H       0.4568990000     2.5826460000    -0.1374790000
   28      H      -0.0540820000     3.7928110000     2.0627400000
   29      H       0.9222880000     2.5788920000     2.8841110000
   30      H      -1.0626030000     2.3152690000     3.9301470000
 ----------------------------------------------------------------

    9    -766.8538141280      4.53e-06  Convergence criterion met
 Total energy in the final basis set =     -766.8538141280

                    Orbital Energies (a.u.)
 --------------------------------------------------------------

 Alpha MOs
 -- Occupied --
-19.1779 -19.1354 -19.1347 -19.1289 -10.3206 -10.2797 -10.2780 -10.2111
-10.2085 -10.2081 -10.2069 -10.1946 -10.1841 -10.1712 -10.1702 -10.1685
 -1.1184  -1.0683  -1.0664  -1.0418  -0.8662  -0.8323  -0.7901  -0.7467
 -0.7325  -0.7032  -0.6603  -0.6504  -0.6221  -0.5774  -0.5735  -0.5432
 -0.5276  -0.4909  -0.4823  -0.4768  -0.4666  -0.4626  -0.4465  -0.4320
 -0.4314  -0.4239  -0.4205  -0.4180  -0.4077  -0.4050  -0.3964  -0.3907
 -0.3897  -0.3841  -0.3813  -0.3666  -0.3560  -0.3413  -0.3020  -0.2918
 -0.2892  -0.2704  -0.2654

          Ground-State Mulliken Net Atomic Charges

     Atom                 Charge (a.u.)
  ----------------------------------------
      1 C                    -0.682480
      2 C                     0.751191
      3 C                     0.802321
      4 C                    -1.129142
      5 C                     0.249051
      6 C                     0.552086
      7 O                    -0.273425
      8 O                    -0.276038
      9 C                    -0.475692
     10 C                    -0.573840
     11 C                    -0.512925
     12 C                    -0.330637
     13 C                    -0.403692
     14 C                    -0.024235
     15 O                    -0.344898
     16 O                    -0.223632
     17 H                     0.179836
     18 H                     0.191501
     19 H                     0.194111
     20 H                     0.192238
     21 H                     0.189681
     22 H                     0.190226
     23 H                     0.189874
     24 H                     0.147863
     25 H                     0.207634
     26 H                     0.226381
     27 H                     0.223817
     28 H                     0.230504
     29 H                     0.215649
     30 H                     0.316670
  ----------------------------------------
  Sum of atomic charges =     0.000000

                    Cartesian Multipole Moments
 -----------------------------------------------------------------
    Charge (ESU x 10^10)
                 0.0000
    Dipole Moment (Debye)
         X       3.8092      Y       3.5600      Z       2.7423
       Tot       5.8910
    Quadrupole Moments (Debye-Ang)
        XX     -86.0952     XY       7.1693     YY     -90.5997
        XZ       7.8238     YZ      22.5076     ZZ     -85.7734

 Total job time:  45.51s(wall), 312.09s(cpu)
        *  Thank you very much for using Q-Chem.  Have a nice day.  *
