 Q-Chem 5.4, Q-Chem, Inc., Pleasanton, CA (2021)
 Q-Chem 5.4.0 for Intel X86 EM64T Linux

User input:
--------------------------------------------------------------
$molecule
-2 1
C                  4.9505360000     -2.7378780000     -0.0360390000
C                  5.6905520000     -1.7933420000     -0.7407320000
C                  5.0439190000     -0.6880710000     -1.3808040000
C                  3.5566960000     -2.6432760000      0.0540940000
C                  2.8781610000     -1.5356730000     -0.5934930000
C                  3.6791770000     -0.5927220000     -1.3010100000
C                  2.8385680000     -3.6646070000      0.8145520000
C                  1.3899850000     -3.4713980000      0.8529810000
C                  0.7370330000     -2.3538690000      0.1962700000
C                  1.4491990000     -1.3458990000     -0.5499070000
C                  0.6140020000     -4.3957460000      1.5623960000
C                 -0.6806750000     -2.2587130000      0.3073510000
C                 -1.4339640000     -3.1638070000      1.0083630000
O                  3.4195720000     -4.6217450000      1.3983170000
O                  0.8610870000     -0.3603570000     -1.1232980000
H                  5.4299440000     -3.5769890000      0.4548900000
H                 -2.5116450000     -3.0774910000      1.0753820000
H                  3.1461320000      0.2197810000     -1.7831510000
H                  1.1282570000     -5.2219740000      2.0397170000
H                 -1.1439910000     -1.4192870000     -0.2000470000
C                 -0.7689430000     -4.2625080000      1.6407480000
S                  7.4338280000     -1.8622190000     -0.6986130000
S                 -1.6798450000     -5.3468270000      2.6606110000
O                 -0.9410400000     -6.6011760000      2.9012000000
O                 -3.0923830000     -5.4466260000      2.2513310000
N                 -1.7785920000     -4.4844560000      4.1713870000
H                 -0.8367190000     -4.4266330000      4.5538670000
H                 -2.3482410000     -5.0541510000      4.7968900000
O                  7.9067840000     -3.2176120000     -0.3575490000
O                  8.0491190000     -1.1885080000     -1.8563450000
N                  7.8429180000     -0.8029920000      0.6227520000
H                  5.6344070000      0.0356520000     -1.9293360000
H                  8.8613280000     -0.7632680000      0.6616170000
H                  7.5025620000     -1.2350440000      1.4796080000
$end

$rem
BASIS  =  6-311++G(d,p)
GUI  =  2
JOB_TYPE  =  SP
METHOD  =  B3LYP
SCF_CONVERGENCE  = 8
SOLVENT_METHOD = sm12
$end

$smx
solvent dimethylformamide
charges CM5
$end

--------------------------------------------------------------

             Standard Nuclear Orientation (Angstroms)
    I     Atom           X                Y                Z
 ----------------------------------------------------------------
    1      C       4.9505360000    -2.7378780000    -0.0360390000
    2      C       5.6905520000    -1.7933420000    -0.7407320000
    3      C       5.0439190000    -0.6880710000    -1.3808040000
    4      C       3.5566960000    -2.6432760000     0.0540940000
    5      C       2.8781610000    -1.5356730000    -0.5934930000
    6      C       3.6791770000    -0.5927220000    -1.3010100000
    7      C       2.8385680000    -3.6646070000     0.8145520000
    8      C       1.3899850000    -3.4713980000     0.8529810000
    9      C       0.7370330000    -2.3538690000     0.1962700000
   10      C       1.4491990000    -1.3458990000    -0.5499070000
   11      C       0.6140020000    -4.3957460000     1.5623960000
   12      C      -0.6806750000    -2.2587130000     0.3073510000
   13      C      -1.4339640000    -3.1638070000     1.0083630000
   14      O       3.4195720000    -4.6217450000     1.3983170000
   15      O       0.8610870000    -0.3603570000    -1.1232980000
   16      H       5.4299440000    -3.5769890000     0.4548900000
   17      H      -2.5116450000    -3.0774910000     1.0753820000
   18      H       3.1461320000     0.2197810000    -1.7831510000
   19      H       1.1282570000    -5.2219740000     2.0397170000
   20      H      -1.1439910000    -1.4192870000    -0.2000470000
   21      C      -0.7689430000    -4.2625080000     1.6407480000
   22      S       7.4338280000    -1.8622190000    -0.6986130000
   23      S      -1.6798450000    -5.3468270000     2.6606110000
   24      O      -0.9410400000    -6.6011760000     2.9012000000
   25      O      -3.0923830000    -5.4466260000     2.2513310000
   26      N      -1.7785920000    -4.4844560000     4.1713870000
   27      H      -0.8367190000    -4.4266330000     4.5538670000
   28      H      -2.3482410000    -5.0541510000     4.7968900000
   29      O       7.9067840000    -3.2176120000    -0.3575490000
   30      O       8.0491190000    -1.1885080000    -1.8563450000
   31      N       7.8429180000    -0.8029920000     0.6227520000
   32      H       5.6344070000     0.0356520000    -1.9293360000
   33      H       8.8613280000    -0.7632680000     0.6616170000
   34      H       7.5025620000    -1.2350440000     1.4796080000
 ----------------------------------------------------------------

   17   -1897.0165124797      5.33e-09  Convergence criterion met
 Total energy in the final basis set =    -1897.2679015844

                    Orbital Energies (a.u.)
 --------------------------------------------------------------

 Alpha MOs
 -- Occupied --
-89.0620 -89.0620 -19.1138 -19.1138 -19.1136 -19.1136 -19.0515 -19.0270
-14.3343 -14.3343 -10.2123 -10.2019 -10.2018 -10.1913 -10.1894 -10.1894
-10.1839 -10.1839 -10.1734 -10.1734 -10.1678 -10.1678 -10.1634 -10.1634
 -8.1235  -8.1235  -6.0864  -6.0864  -6.0860  -6.0860  -6.0843  -6.0843
 -1.1127  -1.1126  -1.0008  -1.0008  -0.9772  -0.9478  -0.8948  -0.8948
 -0.8623  -0.8597  -0.7930  -0.7664  -0.7607  -0.7523  -0.6967  -0.6685
 -0.6581  -0.6135  -0.6063  -0.5867  -0.5587  -0.5449  -0.5424  -0.5114
 -0.5101  -0.5046  -0.5023  -0.4868  -0.4713  -0.4703  -0.4637  -0.4483
 -0.4453  -0.4349  -0.4320  -0.4179  -0.4112  -0.4079  -0.3975  -0.3746
 -0.3730  -0.3698  -0.3555  -0.3544  -0.3483  -0.3475  -0.3395  -0.3341
 -0.3331  -0.3269  -0.3150  -0.3148  -0.3051  -0.3049  -0.2792  -0.2773
 -0.2673  -0.2565  -0.2496  -0.2450  -0.2247  -0.2063  -0.1288

          Ground-State Mulliken Net Atomic Charges

     Atom                 Charge (a.u.)
  ----------------------------------------
      1 C                     0.380291
      2 C                     1.906536
      3 C                     0.534332
      4 C                    -0.557530
      5 C                    -2.310625
      6 C                    -0.457937
      7 C                    -1.467621
      8 C                    -0.546079
      9 C                    -2.316116
     10 C                    -3.057260
     11 C                     0.382884
     12 C                    -0.452588
     13 C                     0.543174
     14 O                    -0.315612
     15 O                    -0.404565
     16 H                     0.150782
     17 H                     0.286735
     18 H                     0.141132
     19 H                     0.150661
     20 H                     0.141437
     21 C                     1.907354
     22 S                     1.339467
     23 S                     1.341009
     24 O                    -0.162346
     25 O                    -0.215630
     26 N                    -0.183332
     27 H                     0.330172
     28 H                     0.427239
     29 O                    -0.162114
     30 O                    -0.215300
     31 N                    -0.181818
     32 H                     0.285997
     33 H                     0.427279
     34 H                     0.329995
  ----------------------------------------
  Sum of atomic charges =    -2.000000

                    Cartesian Multipole Moments
 -----------------------------------------------------------------
    Charge (ESU x 10^10)
                -9.6064
    Dipole Moment (Debye)
         X     -21.1493      Y      28.5227      Z       1.8707
       Tot      35.5575
    Quadrupole Moments (Debye-Ang)
        XX    -321.1499     XY      47.2510     YY    -306.3132
        XZ      36.6973     YZ      25.7368     ZZ    -172.0672

 Total job time:  1227.77s(wall), 9614.98s(cpu)
        *  Thank you very much for using Q-Chem.  Have a nice day.  *
