 Q-Chem 5.4, Q-Chem, Inc., Pleasanton, CA (2021)
 Q-Chem 5.4.0 for Intel X86 EM64T Linux

User input:
--------------------------------------------------------------
$molecule
0 1
C                  1.7060970000      1.4281280000     -0.5486290000
C                  0.3233550000      1.8574960000     -0.1717500000
C                 -0.5871900000      0.9343730000      0.1997260000
C                 -0.2153590000     -0.5136010000      0.2830720000
C                  1.1371160000     -0.9551350000     -0.1303310000
C                  2.0649950000     -0.0358570000     -0.5095560000
O                  2.5406760000      2.2387650000     -0.9011110000
O                 -1.0268850000     -1.3248050000      0.7098400000
O                  3.3407390000     -0.2239480000     -0.8578340000
C                  3.8837970000     -1.5205390000     -1.1470150000
C                  0.0443050000      3.3360360000     -0.2507060000
C                 -2.0038470000      1.2471300000      0.5838240000
H                  4.8902890000     -1.3195430000     -1.5102680000
H                  3.3031690000     -2.0177270000     -1.9274400000
H                  3.9160610000     -2.1452720000     -0.2563480000
O                  1.4658320000     -2.2691800000      0.0358450000
C                  0.7155380000     -3.2460100000     -0.7079970000
H                  1.1683520000     -4.2071240000     -0.4680580000
H                  0.8095310000     -3.0562030000     -1.7832080000
H                 -0.3322520000     -3.2428880000     -0.4125640000
H                  0.9496980000      3.8737960000     -0.5258270000
H                 -0.3128620000      3.7227670000      0.7073630000
H                 -0.7231770000      3.5529030000     -0.9996930000
H                 -2.2262990000      2.3084970000      0.4927670000
H                 -2.1986130000      0.9299420000      1.6121600000
H                 -2.7021460000      0.6842600000     -0.0419310000
$end
$rem
MAX_SCF_CYCLES=200
BASIS  =  6-311++G(d,p)
GUI  =  2
JOB_TYPE  =  SP
METHOD  =  B3LYP
SOLVENT_METHOD = PCM
$end
$pcm
theory = CPCM
$end
$solvent
dielectric 37.219
opticaldielectric 1.43
$end

--------------------------------------------------------------

             Standard Nuclear Orientation (Angstroms)
    I     Atom           X                Y                Z
 ----------------------------------------------------------------
    1      C       1.7060970000     1.4281280000    -0.5486290000
    2      C       0.3233550000     1.8574960000    -0.1717500000
    3      C      -0.5871900000     0.9343730000     0.1997260000
    4      C      -0.2153590000    -0.5136010000     0.2830720000
    5      C       1.1371160000    -0.9551350000    -0.1303310000
    6      C       2.0649950000    -0.0358570000    -0.5095560000
    7      O       2.5406760000     2.2387650000    -0.9011110000
    8      O      -1.0268850000    -1.3248050000     0.7098400000
    9      O       3.3407390000    -0.2239480000    -0.8578340000
   10      C       3.8837970000    -1.5205390000    -1.1470150000
   11      C       0.0443050000     3.3360360000    -0.2507060000
   12      C      -2.0038470000     1.2471300000     0.5838240000
   13      H       4.8902890000    -1.3195430000    -1.5102680000
   14      H       3.3031690000    -2.0177270000    -1.9274400000
   15      H       3.9160610000    -2.1452720000    -0.2563480000
   16      O       1.4658320000    -2.2691800000     0.0358450000
   17      C       0.7155380000    -3.2460100000    -0.7079970000
   18      H       1.1683520000    -4.2071240000    -0.4680580000
   19      H       0.8095310000    -3.0562030000    -1.7832080000
   20      H      -0.3322520000    -3.2428880000    -0.4125640000
   21      H       0.9496980000     3.8737960000    -0.5258270000
   22      H      -0.3128620000     3.7227670000     0.7073630000
   23      H      -0.7231770000     3.5529030000    -0.9996930000
   24      H      -2.2262990000     2.3084970000     0.4927670000
   25      H      -2.1986130000     0.9299420000     1.6121600000
   26      H      -2.7021460000     0.6842600000    -0.0419310000
 ----------------------------------------------------------------

    9    -689.3417475880      4.90e-06  Convergence criterion met
 Total energy in the final basis set =     -689.3417475880

                    Orbital Energies (a.u.)
 --------------------------------------------------------------

 Alpha MOs
 -- Occupied --
-19.1786 -19.1586 -19.1403 -19.1328 -10.2874 -10.2809 -10.2661 -10.2502
-10.2232 -10.2164 -10.2102 -10.2091 -10.1712 -10.1693  -1.1037  -1.0803
 -1.0679  -1.0543  -0.8612  -0.8072  -0.7496  -0.7413  -0.7133  -0.6711
 -0.6629  -0.5971  -0.5912  -0.5540  -0.5317  -0.5137  -0.4954  -0.4762
 -0.4661  -0.4633  -0.4536  -0.4492  -0.4418  -0.4266  -0.4168  -0.4126
 -0.4083  -0.3969  -0.3903  -0.3798  -0.3695  -0.3578  -0.3546  -0.3164
 -0.2875  -0.2855  -0.2725  -0.2426

          Ground-State Mulliken Net Atomic Charges

     Atom                 Charge (a.u.)
  ----------------------------------------
      1 C                    -0.922634
      2 C                     0.627163
      3 C                     0.792357
      4 C                    -0.537907
      5 C                     0.305015
      6 C                     0.159142
      7 O                    -0.294128
      8 O                    -0.314378
      9 O                    -0.210610
     10 C                    -0.309044
     11 C                    -0.494239
     12 C                    -0.506164
     13 H                     0.201954
     14 H                     0.195141
     15 H                     0.199369
     16 O                    -0.222556
     17 C                    -0.316859
     18 H                     0.177170
     19 H                     0.158469
     20 H                     0.171179
     21 H                     0.187593
     22 H                     0.189662
     23 H                     0.194684
     24 H                     0.181936
     25 H                     0.197505
     26 H                     0.190181
  ----------------------------------------
  Sum of atomic charges =     0.000000

                    Cartesian Multipole Moments
 -----------------------------------------------------------------
    Charge (ESU x 10^10)
                 0.0000
    Dipole Moment (Debye)
         X      -1.4424      Y      -1.4715      Z      -1.6819
       Tot       2.6598
    Quadrupole Moments (Debye-Ang)
        XX     -86.4870     XY     -19.5016     YY     -77.1558
        XZ       0.7724     YZ      11.2186     ZZ     -82.0308

 Total job time:  32.45s(wall), 233.57s(cpu)
        *  Thank you very much for using Q-Chem.  Have a nice day.  *
