 Gaussian 16, Revision A.03,
 Gaussian 16:  ES64L-G16RevA.03 25-Dec-2016

 --------------------------------------
 #P UB3LYP/6-311++G(d,p) nosym opt freq
 --------------------------------------

 --------
 Oxidized
 --------
 Symbolic Z-matrix:
 Charge =  0 Multiplicity = 1

 SCF Done:  E(UB3LYP) =  -689.326166058     A.U. after   17 cycles
 Optimization completed.
    -- Stationary point found.
 Normal termination of Gaussian 16 at Wed Jan 10 04:52:46 2024.

 ----------------------------------------------------------------------
 #P Geom=AllCheck Guess=TCheck SCRF=Check GenChk UB3LYP/6-311++G(d,p) F
 req
 ----------------------------------------------------------------------

 Structure from the checkpoint file:  "089.chk"
 --------
 Oxidized
 --------
 Charge =  0 Multiplicity = 1

                          Input orientation:
 ---------------------------------------------------------------------
 Center     Atomic      Atomic             Coordinates (Angstroms)
 Number     Number       Type             X           Y           Z
 ---------------------------------------------------------------------
      1          6           0        1.706097    1.428128   -0.548629
      2          6           0        0.323355    1.857496   -0.171750
      3          6           0       -0.587190    0.934373    0.199726
      4          6           0       -0.215359   -0.513601    0.283072
      5          6           0        1.137116   -0.955135   -0.130331
      6          6           0        2.064995   -0.035857   -0.509556
      7          8           0        2.540676    2.238765   -0.901111
      8          8           0       -1.026885   -1.324805    0.709840
      9          8           0        3.340739   -0.223948   -0.857834
     10          6           0        3.883797   -1.520539   -1.147015
     11          6           0        0.044305    3.336036   -0.250706
     12          6           0       -2.003847    1.247130    0.583824
     13          1           0        4.890289   -1.319543   -1.510268
     14          1           0        3.303169   -2.017727   -1.927440
     15          1           0        3.916061   -2.145272   -0.256348
     16          8           0        1.465832   -2.269180    0.035845
     17          6           0        0.715538   -3.246010   -0.707997
     18          1           0        1.168352   -4.207124   -0.468058
     19          1           0        0.809531   -3.056203   -1.783208
     20          1           0       -0.332252   -3.242888   -0.412564
     21          1           0        0.949698    3.873796   -0.525827
     22          1           0       -0.312862    3.722767    0.707363
     23          1           0       -0.723177    3.552903   -0.999693
     24          1           0       -2.226299    2.308497    0.492767
     25          1           0       -2.198613    0.929942    1.612160
     26          1           0       -2.702146    0.684260   -0.041931
 ---------------------------------------------------------------------

 SCF Done:  E(UB3LYP) =  -689.326166058     A.U. after    1 cycles

 Alpha  occ. eigenvalues --  -19.17724 -19.15969 -19.13206 -19.12698 -10.28061
 Alpha  occ. eigenvalues --  -10.27648 -10.26490 -10.24917 -10.23427 -10.22651
 Alpha  occ. eigenvalues --  -10.21186 -10.21096 -10.17938 -10.17708  -1.10208
 Alpha  occ. eigenvalues --   -1.07835  -1.06042  -1.05089  -0.86238  -0.80951
 Alpha  occ. eigenvalues --   -0.75354  -0.74625  -0.71924  -0.67681  -0.66392
 Alpha  occ. eigenvalues --   -0.59750  -0.59354  -0.55453  -0.53310  -0.51572
 Alpha  occ. eigenvalues --   -0.49811  -0.47077  -0.46850  -0.46231  -0.45667
 Alpha  occ. eigenvalues --   -0.45482  -0.44180  -0.42778  -0.42181  -0.41690
 Alpha  occ. eigenvalues --   -0.41240  -0.39857  -0.39492  -0.38503  -0.37264
 Alpha  occ. eigenvalues --   -0.36037  -0.35503  -0.31581  -0.28593  -0.27940
 Alpha  occ. eigenvalues --   -0.26844  -0.24329
 Alpha virt. eigenvalues --   -0.12013  -0.01645  -0.01006  -0.00719   0.00580
 Alpha virt. eigenvalues --    0.00988   0.01525   0.01713   0.02228   0.02814
 Alpha virt. eigenvalues --    0.03327   0.04027   0.04794   0.04911   0.05592

  Beta  occ. eigenvalues --  -19.17724 -19.15969 -19.13206 -19.12698 -10.28061
  Beta  occ. eigenvalues --  -10.27648 -10.26490 -10.24917 -10.23427 -10.22651
  Beta  occ. eigenvalues --  -10.21186 -10.21096 -10.17938 -10.17708  -1.10208
  Beta  occ. eigenvalues --   -1.07835  -1.06042  -1.05089  -0.86238  -0.80951
  Beta  occ. eigenvalues --   -0.75354  -0.74625  -0.71924  -0.67681  -0.66392
  Beta  occ. eigenvalues --   -0.59750  -0.59354  -0.55453  -0.53310  -0.51572
  Beta  occ. eigenvalues --   -0.49811  -0.47077  -0.46850  -0.46231  -0.45667
  Beta  occ. eigenvalues --   -0.45482  -0.44180  -0.42778  -0.42181  -0.41690
  Beta  occ. eigenvalues --   -0.41240  -0.39857  -0.39492  -0.38503  -0.37264
  Beta  occ. eigenvalues --   -0.36037  -0.35503  -0.31581  -0.28593  -0.27940
  Beta  occ. eigenvalues --   -0.26844  -0.24329
  Beta virt. eigenvalues --   -0.12013  -0.01645  -0.01006  -0.00719   0.00580
  Beta virt. eigenvalues --    0.00988   0.01525   0.01713   0.02228   0.02814
  Beta virt. eigenvalues --    0.03327   0.04027   0.04794   0.04911   0.05592

 Mulliken charges and spin densities:
               1          2
     1  C   -0.943941  -0.000000
     2  C    0.676786   0.000000
     3  C    0.764761  -0.000000
     4  C   -0.635819   0.000000
     5  C    0.189925   0.000000
     6  C    0.166404   0.000000
     7  O   -0.210883   0.000000
     8  O   -0.246560  -0.000000
     9  O   -0.157119  -0.000000
    10  C   -0.287660   0.000000
    11  C   -0.467278  -0.000000
    12  C   -0.427806  -0.000000
    13  H    0.186180  -0.000000
    14  H    0.162815   0.000000
    15  H    0.190680   0.000000
    16  O   -0.192910   0.000000
    17  C   -0.289925   0.000000
    18  H    0.158403  -0.000000
    19  H    0.123625   0.000000
    20  H    0.179038  -0.000000
    21  H    0.202291  -0.000000
    22  H    0.165441  -0.000000
    23  H    0.169428  -0.000000
    24  H    0.155418  -0.000000
    25  H    0.191685  -0.000000
    26  H    0.177019  -0.000000
 Sum of Mulliken charges =  -0.00000   0.00000

 Dipole moment (field-independent basis, Debye):
    X=             -0.8847    Y=             -1.1730    Z=             -1.2240  Tot=              1.9123
 Quadrupole moment (field-independent basis, Debye-Ang):
   XX=            -85.1561   YY=            -78.3894   ZZ=            -82.5520
   XY=            -15.1190   XZ=              0.6881   YZ=              8.7439

  Exact polarizability: 156.997  10.408 161.276 -25.099  -6.327  92.420
 Approx polarizability: 260.292  72.278 245.999 -49.379 -33.549 150.078

                      1                      2                      3
                      A                      A                      A
 Frequencies --     25.9977                33.6124                49.0494
 Red. masses --      1.9524                 1.3246                 1.2495
 Frc consts  --      0.0008                 0.0009                 0.0018
 IR Inten    --      2.0544                 2.0755                 1.1967

                      4                      5                      6
                      A                      A                      A
 Frequencies --     57.2909                84.4710                91.8323
 Red. masses --      3.3986                 1.5631                 4.0027
 Frc consts  --      0.0066                 0.0066                 0.0199
 IR Inten    --      3.3409                 2.9852                 1.7253

                      7                      8                      9
                      A                      A                      A
 Frequencies --    109.7767               139.2933               200.0645
 Red. masses --      2.7425                 1.9215                 3.2400
 Frc consts  --      0.0195                 0.0220                 0.0764
 IR Inten    --      0.0441                 1.6498                 3.0060

                     10                     11                     12
                      A                      A                      A
 Frequencies --    220.2845               231.0439               250.6296
 Red. masses --      1.8631                 1.6442                 3.4449
 Frc consts  --      0.0533                 0.0517                 0.1275
 IR Inten    --      3.8037                 1.7090                 2.8356

                     13                     14                     15
                      A                      A                      A
 Frequencies --    314.5369               329.2398               339.5689
 Red. masses --      3.3529                 3.4886                 3.9239
 Frc consts  --      0.1954                 0.2228                 0.2666
 IR Inten    --      0.6817                 1.8350                 3.2559

                     16                     17                     18
                      A                      A                      A
 Frequencies --    347.8156               384.9447               422.0898
 Red. masses --      7.2402                 6.8331                 7.8744
 Frc consts  --      0.5161                 0.5966                 0.8266
 IR Inten    --      2.9152                 5.8425                15.6518

                     19                     20                     21
                      A                      A                      A
 Frequencies --    429.9525               451.5780               455.6583
 Red. masses --      5.5789                 4.4025                 6.9716
 Frc consts  --      0.6076                 0.5290                 0.8528
 IR Inten    --      9.4027                 4.9910                 4.4538

                     22                     23                     24
                      A                      A                      A
 Frequencies --    542.6417               603.1796               633.0721
 Red. masses --      7.3649                 6.7177                 6.4770
 Frc consts  --      1.2777                 1.4400                 1.5294
 IR Inten    --      5.8764                 2.2690                 3.0643

                     25                     26                     27
                      A                      A                      A
 Frequencies --    731.2956               745.6582               780.2863
 Red. masses --      3.4100                 6.5387                 8.9706
 Frc consts  --      1.0745                 2.1420                 3.2179
 IR Inten    --      9.7696                14.5267                 1.8130

                     28                     29                     30
                      A                      A                      A
 Frequencies --    870.1654               939.0234               958.3881
 Red. masses --      4.2592                 3.4376                 6.6307
 Frc consts  --      1.9001                 1.7859                 3.5883
 IR Inten    --     24.9653                14.7802                18.6228

                     31                     32                     33
                      A                      A                      A
 Frequencies --    988.1011              1028.7424              1056.7590
 Red. masses --      2.7467                 1.4540                 1.5361
 Frc consts  --      1.5800                 0.9066                 1.0107
 IR Inten    --      3.5742                 0.8478                 0.4500

                     34                     35                     36
                      A                      A                      A
 Frequencies --   1071.3810              1108.9842              1136.8336
 Red. masses --      2.5361                 4.0561                 2.5389
 Frc consts  --      1.7152                 2.9391                 1.9333
 IR Inten    --    226.8800                 6.3419                24.4438

                     37                     38                     39
                      A                      A                      A
 Frequencies --   1161.4202              1164.8214              1180.2169
 Red. masses --      1.2729                 1.2621                 2.4292
 Frc consts  --      1.0117                 1.0089                 1.9936
 IR Inten    --     21.1289                 1.1778                84.3154

                     40                     41                     42
                      A                      A                      A
 Frequencies --   1214.2292              1229.1184              1280.9279
 Red. masses --      1.6108                 2.3158                 5.5203
 Frc consts  --      1.3992                 2.0613                 5.3365
 IR Inten    --     26.2847               163.1368               376.9021

                     43                     44                     45
                      A                      A                      A
 Frequencies --   1316.4780              1334.0888              1406.9159
 Red. masses --      8.2500                 4.9884                 1.2827
 Frc consts  --      8.4242                 5.2310                 1.4959
 IR Inten    --     10.3658                18.7787                14.1261

                     46                     47                     48
                      A                      A                      A
 Frequencies --   1415.6090              1461.0463              1470.8266
 Red. masses --      1.2645                 1.1616                 1.0865
 Frc consts  --      1.4930                 1.4609                 1.3848
 IR Inten    --     15.8918                23.3452                 1.5964

                     49                     50                     51
                      A                      A                      A
 Frequencies --   1472.7376              1482.1022              1485.0747
 Red. masses --      1.0463                 1.0786                 1.1720
 Frc consts  --      1.3371                 1.3959                 1.5229
 IR Inten    --     12.4963                11.2360                 6.5407

                     52                     53                     54
                      A                      A                      A
 Frequencies --   1490.8245              1491.3786              1496.2960
 Red. masses --      1.0557                 1.0664                 1.0530
 Frc consts  --      1.3824                 1.3975                 1.3890
 IR Inten    --     19.6803                10.6540                22.1446

                     55                     56                     57
                      A                      A                      A
 Frequencies --   1504.3317              1514.3876              1644.1298
 Red. masses --      1.0439                 1.0474                 9.1530
 Frc consts  --      1.3919                 1.4152                14.5775
 IR Inten    --      4.9308                17.4870               314.7779

                     58                     59                     60
                      A                      A                      A
 Frequencies --   1694.6657              1698.2498              1725.6233
 Red. masses --     11.7253                 9.0364                12.8732
 Frc consts  --     19.8401                15.3549                22.5854
 IR Inten    --    248.5247                10.7683               222.9413

                     61                     62                     63
                      A                      A                      A
 Frequencies --   3013.4266              3032.6286              3040.1523
 Red. masses --      1.0436                 1.0403                 1.0389
 Frc consts  --      5.5835                 5.6370                 5.6573
 IR Inten    --     62.5448                14.9753                11.3346

                     64                     65                     66
                      A                      A                      A
 Frequencies --   3041.3788              3081.1379              3084.0391
 Red. masses --      1.0337                 1.0995                 1.0986
 Frc consts  --      5.6336                 6.1497                 6.1562
 IR Inten    --     47.3557                17.4816                 1.4709

                     67                     68                     69
                      A                      A                      A
 Frequencies --   3110.1369              3122.9773              3139.0783
 Red. masses --      1.0887                 1.1001                 1.0974
 Frc consts  --      6.2044                 6.3215                 6.3712
 IR Inten    --     30.1531                26.6734                 8.4865

                     70                     71                     72
                      A                      A                      A
 Frequencies --   3141.9653              3147.3522              3149.4535
 Red. masses --      1.0990                 1.1072                 1.1082
 Frc consts  --      6.3921                 6.4622                 6.4763
 IR Inten    --      7.3024                 7.6271                10.3627

 - Thermochemistry -
 -------------------
 Temperature   298.150 Kelvin.  Pressure   1.00000 Atm.
 Atom     1 has atomic number  6 and mass  12.00000

 Molecular mass:   196.07356 amu.
 Principal axes and moments of inertia in atomic units:
                           1         2         3
     Eigenvalues --  1990.750472759.196074628.92588
           X           -0.55185   0.77742   0.30181
           Y            0.82164   0.56880   0.03721
           Z            0.14274  -0.26851   0.95264
 This molecule is an asymmetric top.
 Rotational symmetry number  1.
 Warning -- assumption of classical behavior for rotation
           may cause significant error
 Rotational temperatures (Kelvin)      0.04351     0.03139     0.01871
 Rotational constants (GHZ):           0.90656     0.65408     0.38988
 Zero-point vibrational energy     535941.8 (Joules/Mol)
                                  128.09316 (Kcal/Mol)
 Warning -- explicit consideration of  23 degrees of freedom as
           vibrations may cause significant error
 Vibrational temperatures:     37.40    48.36    70.57    82.43   121.53
          (Kelvin)            132.13   157.94   200.41   287.85   316.94
                              332.42   360.60   452.55   473.70   488.56
                              500.43   553.85   607.29   618.61   649.72
                              655.59   780.74   867.84   910.85  1052.17
                             1072.84  1122.66  1251.97  1351.05  1378.91
                             1421.66  1480.13  1520.44  1541.48  1595.58
                             1635.65  1671.02  1675.92  1698.07  1747.01
                             1768.43  1842.97  1894.12  1919.46  2024.24
                             2036.75  2102.12  2116.19  2118.94  2132.41
                             2136.69  2144.96  2145.76  2152.84  2164.40
                             2178.87  2365.54  2438.25  2443.40  2482.79
                             4335.65  4363.28  4374.10  4375.87  4433.07
                             4437.24  4474.79  4493.27  4516.43  4520.59
                             4528.34  4531.36

 Zero-point correction=                           0.204129 (Hartree/Particle)
 Thermal correction to Energy=                    0.219593
 Thermal correction to Enthalpy=                  0.220537
 Thermal correction to Gibbs Free Energy=         0.159524
 Sum of electronic and zero-point Energies=           -689.122037
 Sum of electronic and thermal Energies=              -689.106573
 Sum of electronic and thermal Enthalpies=            -689.105629
 Sum of electronic and thermal Free Energies=         -689.166642

                     E (Thermal)             CV                S
                      KCal/Mol        Cal/Mol-Kelvin    Cal/Mol-Kelvin
 Total                  137.796             53.608            128.412
 Electronic               0.000              0.000              0.000
 Translational            0.889              2.981             41.725
 Rotational               0.889              2.981             31.609
 Vibrational            136.019             47.646             55.078
 Vibration     1          0.593              1.985              6.114
 Vibration     2          0.594              1.983              5.604
 Vibration     3          0.595              1.978              4.855
 Vibration     4          0.596              1.975              4.548
 Vibration     5          0.601              1.960              3.784
 Vibration     6          0.602              1.955              3.621
 Vibration     7          0.606              1.941              3.273
 Vibration     8          0.615              1.914              2.814
 Vibration     9          0.638              1.840              2.133
 Vibration    10          0.647              1.810              1.957
 Vibration    11          0.653              1.794              1.871
 Vibration    12          0.663              1.762              1.726
 Vibration    13          0.702              1.646              1.338
 Vibration    14          0.712              1.617              1.264
 Vibration    15          0.719              1.596              1.214
 Vibration    16          0.725              1.580              1.176
 Vibration    17          0.754              1.502              1.020
 Vibration    18          0.784              1.422              0.885
 Vibration    19          0.791              1.405              0.859
 Vibration    20          0.810              1.357              0.791
 Vibration    21          0.814              1.348              0.779
 Vibration    22          0.898              1.156              0.560
 Vibration    23          0.962              1.025              0.444

 Optimization completed.
    -- Stationary point found.
 Normal termination of Gaussian 16 at Wed Jan 10 05:29:53 2024.
