 Q-Chem 5.4, Q-Chem, Inc., Pleasanton, CA (2021)
 Q-Chem 5.4.0 for Intel X86 EM64T Linux

User input:
--------------------------------------------------------------
$molecule
0 1
C                 -4.2271050000     -1.3039380000     -0.1775400000
C                 -3.9080960000     -1.7889130000     -1.4415640000
C                 -3.1023890000     -1.0366630000     -2.2999130000
C                 -3.7359830000     -0.0638090000      0.2398730000
C                 -2.9252240000      0.6907960000     -0.6235320000
C                 -2.6134660000      0.2004860000     -1.8932110000
C                 -4.1141050000      0.4468860000      1.5929330000
C                 -3.4657440000      1.7312820000      2.0431180000
C                 -2.6949090000      2.4432440000      1.1926310000
C                 -2.3927760000      2.0123090000     -0.1854280000
S                 -3.8792120000      2.4244470000      3.6226680000
C                 -3.6954950000      1.0447740000      4.7629890000
C                 -4.7492030000      0.7415120000      5.6226610000
C                 -2.4829480000      0.3578670000      4.8591470000
C                 -2.3144640000     -0.6654080000      5.7950410000
C                 -4.5780010000     -0.2597360000      6.5762180000
C                 -3.3773840000     -0.9592300000      6.6578790000
C                 -1.0193650000     -1.4378160000      5.8718340000
O                 -4.9250490000     -0.1331410000      2.2860860000
O                 -1.7040550000      2.7094410000     -0.9158430000
H                 -4.8569700000     -1.8683870000      0.4988250000
H                 -4.2891790000     -2.7519830000     -1.7615890000
H                 -2.8581880000     -1.4167840000     -3.2853270000
H                 -1.9893440000      0.8024200000     -2.5423370000
H                 -2.2412710000      3.3811630000      1.4936020000
H                 -5.6914850000      1.2677340000      5.5350240000
H                 -1.6607560000      0.6258170000      4.2044610000
H                 -5.3917160000     -0.5016860000      7.2507400000
H                 -3.2609260000     -1.7408510000      7.4017010000
H                 -0.2049300000     -0.9015740000      5.3804750000
H                 -1.1161980000     -2.4128350000      5.3824160000
H                 -0.7272610000     -1.6216110000      6.9088730000
$end

$rem
BASIS  =  6-311++G(d,p)
GUI  =  2
JOB_TYPE  =  SP
METHOD  =  B3LYP
SCF_CONVERGENCE  = 8
SOLVENT_METHOD = sm12
$end

$smx
solvent dimethylformamide
charges CM5
$end

--------------------------------------------------------------

             Standard Nuclear Orientation (Angstroms)
    I     Atom           X                Y                Z
 ----------------------------------------------------------------
    1      C      -4.2271050000    -1.3039380000    -0.1775400000
    2      C      -3.9080960000    -1.7889130000    -1.4415640000
    3      C      -3.1023890000    -1.0366630000    -2.2999130000
    4      C      -3.7359830000    -0.0638090000     0.2398730000
    5      C      -2.9252240000     0.6907960000    -0.6235320000
    6      C      -2.6134660000     0.2004860000    -1.8932110000
    7      C      -4.1141050000     0.4468860000     1.5929330000
    8      C      -3.4657440000     1.7312820000     2.0431180000
    9      C      -2.6949090000     2.4432440000     1.1926310000
   10      C      -2.3927760000     2.0123090000    -0.1854280000
   11      S      -3.8792120000     2.4244470000     3.6226680000
   12      C      -3.6954950000     1.0447740000     4.7629890000
   13      C      -4.7492030000     0.7415120000     5.6226610000
   14      C      -2.4829480000     0.3578670000     4.8591470000
   15      C      -2.3144640000    -0.6654080000     5.7950410000
   16      C      -4.5780010000    -0.2597360000     6.5762180000
   17      C      -3.3773840000    -0.9592300000     6.6578790000
   18      C      -1.0193650000    -1.4378160000     5.8718340000
   19      O      -4.9250490000    -0.1331410000     2.2860860000
   20      O      -1.7040550000     2.7094410000    -0.9158430000
   21      H      -4.8569700000    -1.8683870000     0.4988250000
   22      H      -4.2891790000    -2.7519830000    -1.7615890000
   23      H      -2.8581880000    -1.4167840000    -3.2853270000
   24      H      -1.9893440000     0.8024200000    -2.5423370000
   25      H      -2.2412710000     3.3811630000     1.4936020000
   26      H      -5.6914850000     1.2677340000     5.5350240000
   27      H      -1.6607560000     0.6258170000     4.2044610000
   28      H      -5.3917160000    -0.5016860000     7.2507400000
   29      H      -3.2609260000    -1.7408510000     7.4017010000
   30      H      -0.2049300000    -0.9015740000     5.3804750000
   31      H      -1.1161980000    -2.4128350000     5.3824160000
   32      H      -0.7272610000    -1.6216110000     6.9088730000
 ----------------------------------------------------------------

   15   -1203.9025253257      9.64e-09  Convergence criterion met
 Total energy in the final basis set =    -1203.9263039340

                    Orbital Energies (a.u.)
 --------------------------------------------------------------

 Alpha MOs
 -- Occupied --
-88.8749 -19.1391 -19.1331 -10.2919 -10.2833 -10.2468 -10.2192 -10.2129
-10.2121 -10.2102 -10.2002 -10.1998 -10.1993 -10.1989 -10.1960 -10.1871
-10.1865 -10.1859 -10.1824 -10.1700  -7.9607  -5.9245  -5.9207  -5.9148
 -1.0749  -1.0650  -0.8940  -0.8808  -0.8572  -0.8066  -0.7837  -0.7806
 -0.7710  -0.7281  -0.6976  -0.6906  -0.6523  -0.6367  -0.6124  -0.5964
 -0.5818  -0.5483  -0.5327  -0.5202  -0.5009  -0.4854  -0.4791  -0.4643
 -0.4626  -0.4570  -0.4533  -0.4494  -0.4336  -0.4313  -0.4263  -0.4228
 -0.4213  -0.3956  -0.3927  -0.3842  -0.3797  -0.3722  -0.3677  -0.3570
 -0.3498  -0.3210  -0.2931  -0.2880  -0.2837  -0.2806  -0.2718  -0.2600
 -0.2395

          Ground-State Mulliken Net Atomic Charges

     Atom                 Charge (a.u.)
  ----------------------------------------
      1 C                     0.260039
      2 C                     0.531153
      3 C                     0.435340
      4 C                    -0.335929
      5 C                    -0.112004
      6 C                     0.152291
      7 C                    -1.553383
      8 C                     0.755109
      9 C                     0.243993
     10 C                    -1.061310
     11 S                    -0.386921
     12 C                     0.220735
     13 C                    -0.179133
     14 C                    -0.906022
     15 C                     0.058130
     16 C                    -0.344594
     17 C                    -0.248721
     18 C                     0.047645
     19 O                    -0.189443
     20 O                    -0.305188
     21 H                     0.205487
     22 H                     0.326729
     23 H                     0.328224
     24 H                     0.187022
     25 H                     0.311875
     26 H                     0.215499
     27 H                     0.228009
     28 H                     0.267111
     29 H                     0.241666
     30 H                     0.202893
     31 H                     0.214892
     32 H                     0.188809
  ----------------------------------------
  Sum of atomic charges =     0.000000

                    Cartesian Multipole Moments
 -----------------------------------------------------------------
    Charge (ESU x 10^10)
                 0.0000
    Dipole Moment (Debye)
         X       0.3671      Y      -4.0356      Z       0.0376
       Tot       4.0524
    Quadrupole Moments (Debye-Ang)
        XX    -127.1832     XY       8.3925     YY    -125.3126
        XZ       6.1750     YZ      -0.1826     ZZ    -107.3540

 Total job time:  852.27s(wall), 6680.68s(cpu)
        *  Thank you very much for using Q-Chem.  Have a nice day.  *
