 Q-Chem 5.4, Q-Chem, Inc., Pleasanton, CA (2021)
 Q-Chem 5.4.0 for Intel X86 EM64T Linux

User input:
--------------------------------------------------------------
$molecule
-1 2
O                 -2.7026600000     -0.1858320000      0.4473600000
C                 -1.3669860000     -0.0281180000      0.2342650000
C                 -0.7430520000      1.1934070000      0.2743820000
C                  0.6638330000      1.2807260000      0.0403170000
O                  1.3604770000      2.3479550000      0.0489560000
C                  1.3670170000      0.0280460000     -0.2343010000
C                  0.7431280000     -1.1934440000     -0.2743020000
C                 -0.6638430000     -1.2807160000     -0.0404410000
O                 -1.3603870000     -2.3480550000     -0.0493490000
O                  2.7026770000      0.1859680000     -0.4473020000
H                 -2.8058790000     -1.1593370000      0.3472020000
H                 -1.2989630000      2.1010280000      0.4814670000
H                  1.2989100000     -2.1011260000     -0.4814420000
H                  2.8057280000      1.1594990000     -0.3468120000
$end

$rem
BASIS  =  6-311++G(d,p)
GUI  =  2
JOB_TYPE  =  SP
METHOD  =  B3LYP
SCF_CONVERGENCE  = 8
SOLVENT_METHOD = sm12
$end

$smx
solvent dimethylformamide
charges CM5
$end

--------------------------------------------------------------

             Standard Nuclear Orientation (Angstroms)
    I     Atom           X                Y                Z
 ----------------------------------------------------------------
    1      O      -2.7026600000    -0.1858320000     0.4473600000
    2      C      -1.3669860000    -0.0281180000     0.2342650000
    3      C      -0.7430520000     1.1934070000     0.2743820000
    4      C       0.6638330000     1.2807260000     0.0403170000
    5      O       1.3604770000     2.3479550000     0.0489560000
    6      C       1.3670170000     0.0280460000    -0.2343010000
    7      C       0.7431280000    -1.1934440000    -0.2743020000
    8      C      -0.6638430000    -1.2807160000    -0.0404410000
    9      O      -1.3603870000    -2.3480550000    -0.0493490000
   10      O       2.7026770000     0.1859680000    -0.4473020000
   11      H      -2.8058790000    -1.1593370000     0.3472020000
   12      H      -1.2989630000     2.1010280000     0.4814670000
   13      H       1.2989100000    -2.1011260000    -0.4814420000
   14      H       2.8057280000     1.1594990000    -0.3468120000
 ----------------------------------------------------------------

   16    -532.1661564355      5.11e-09  Convergence criterion met
 Total energy in the final basis set =     -532.2506350129

                    Orbital Energies (a.u.)
 --------------------------------------------------------------

 Alpha MOs
 -- Occupied --
-19.1497 -19.1497 -19.0875 -19.0875 -10.2316 -10.2316 -10.2287 -10.2287
-10.1647 -10.1647  -1.0699  -1.0683  -0.9974  -0.9974  -0.8269  -0.7443
 -0.6847  -0.6127  -0.5980  -0.5525  -0.5018  -0.4873  -0.4548  -0.4474
 -0.4429  -0.4152  -0.4102  -0.4011  -0.3776  -0.3656  -0.3520  -0.3511
 -0.2709  -0.2638  -0.2564  -0.2316  -0.1626

 Beta MOs
 -- Occupied --
-19.1486 -19.1486 -19.0813 -19.0813 -10.2291 -10.2291 -10.2267 -10.2267
-10.1653 -10.1652  -1.0665  -1.0650  -0.9870  -0.9867  -0.8212  -0.7427
 -0.6733  -0.6090  -0.5944  -0.5501  -0.4975  -0.4853  -0.4536  -0.4460
 -0.4277  -0.4091  -0.3969  -0.3956  -0.3754  -0.3484  -0.3439  -0.3348
 -0.2580  -0.2504  -0.2452  -0.2247

          Ground-State Mulliken Net Atomic Charges

     Atom                 Charge (a.u.)    Spin (a.u.)
  --------------------------------------------------------
      1 O                    -0.182285       0.034239
      2 C                    -0.074488       0.191528
      3 C                     0.128599      -0.069661
      4 C                    -0.426298       0.123400
      5 O                    -0.420025       0.224677
      6 C                    -0.074909       0.191431
      7 C                     0.128477      -0.069690
      8 C                    -0.426298       0.123386
      9 O                    -0.420047       0.224757
     10 O                    -0.182345       0.034221
     11 H                     0.291111      -0.003067
     12 H                     0.183715      -0.001078
     13 H                     0.183681      -0.001077
     14 H                     0.291111      -0.003066
  --------------------------------------------------------
  Sum of atomic charges =    -1.000000

                    Cartesian Multipole Moments
 -----------------------------------------------------------------
    Charge (ESU x 10^10)
                -4.8032
    Dipole Moment (Debye)
         X      -0.0008      Y       0.0004      Z       0.0012
       Tot       0.0015
    Quadrupole Moments (Debye-Ang)
        XX     -76.1642     XY      -8.2732     YY     -83.7550
        XZ       1.5583     YZ      -1.2827     ZZ     -61.8273

 Total job time:  107.33s(wall), 775.17s(cpu)
        *  Thank you very much for using Q-Chem.  Have a nice day.  *
