 Q-Chem 5.4, Q-Chem, Inc., Pleasanton, CA (2021)
 Q-Chem 5.4.0 for Intel X86 EM64T Linux

User input:
--------------------------------------------------------------
$molecule
-2 1
C                 -1.8817890000      1.7609080000      0.7139180000
C                 -2.6327640000      0.9389390000      1.5236410000
C                 -2.1544790000     -0.3521470000      1.8571120000
C                 -0.6352150000      1.3478940000      0.2015220000
C                 -0.1508910000      0.0423020000      0.5405700000
C                 -0.9390460000     -0.7791770000      1.3714480000
C                  0.1204600000      2.2521790000     -0.6569980000
C                  1.3815120000      1.7401020000     -1.1290720000
C                  1.8517490000      0.4554370000     -0.8037050000
C                  1.1285480000     -0.4511940000      0.0480850000
O                 -0.3257680000      3.4124630000     -0.9581160000
O                  1.5648500000     -1.6133420000      0.3545890000
C                  2.1795890000      2.6659310000     -2.0194350000
C                  3.1697560000     -0.0633740000     -1.3358390000
C                  4.3522410000      0.1164120000     -0.3614370000
C                  5.6696230000     -0.4547740000     -0.9007230000
C                  6.8674860000     -0.2772320000      0.0414890000
C                  8.1804600000     -0.8458330000     -0.5124490000
C                  9.3891620000     -0.6584410000      0.4136860000
C                 10.6968420000     -1.2250480000     -0.1540480000
C                 11.9121030000     -1.0338700000      0.7623430000
C                 13.2162330000     -1.5983290000      0.1840810000
C                 14.4311110000     -1.4044770000      1.0962800000
Cl                -3.1040010000     -1.4392080000      2.8977910000
Cl                -4.1980200000      1.5217740000      2.1384990000
H                 -2.2280540000      2.7517460000      0.4448680000
H                 -0.5519780000     -1.7617580000      1.6141670000
H                  1.7042670000      3.6484020000     -2.0107640000
H                  2.2078430000      2.3162310000     -3.0621400000
H                  3.2214270000      2.7676230000     -1.6914150000
H                  3.4198080000      0.4152220000     -2.2899770000
H                  3.0542330000     -1.1377330000     -1.5181610000
H                  4.0905480000     -0.3785260000      0.5792840000
H                  4.4817430000      1.1831420000     -0.1365890000
H                  5.9023770000      0.0181370000     -1.8659530000
H                  5.5337110000     -1.5239580000     -1.1120630000
H                  6.6424360000     -0.7553420000      1.0037210000
H                  7.0007190000      0.7912150000      0.2585620000
H                  8.3954960000     -0.3748050000     -1.4813950000
H                  8.0492510000     -1.9162230000     -0.7205890000
H                  9.1798700000     -1.1318590000      1.3820380000
H                  9.5207080000      0.4114600000      0.6233990000
H                 10.9014770000     -0.7538720000     -1.1248740000
H                 10.5661310000     -2.2958310000     -0.3602270000
H                 11.7138600000     -1.5075870000      1.7327440000
H                 12.0449680000      0.0359280000      0.9706030000
H                 13.4131980000     -1.1262320000     -0.7870800000
H                 13.0850190000     -2.6681500000     -0.0232410000
H                 14.6190840000     -0.3425700000      1.2921330000
H                 15.3423300000     -1.8185220000      0.6510280000
H                 14.2883000000     -1.8988080000      2.0640260000
$end

$rem
MAX_SCF_CYCLES=200
BASIS  =  6-311++G(d,p)
GUI  =  2
JOB_TYPE  =  SP
METHOD  =  B3LYP
THRESH      14
SCF_CONVERGENCE  = 5
SOLVENT_METHOD = sm12
$end

$smx
solvent dimethylformamide
charges CM5
$end

--------------------------------------------------------------

             Standard Nuclear Orientation (Angstroms)
    I     Atom           X                Y                Z
 ----------------------------------------------------------------
    1      C      -1.8817890000     1.7609080000     0.7139180000
    2      C      -2.6327640000     0.9389390000     1.5236410000
    3      C      -2.1544790000    -0.3521470000     1.8571120000
    4      C      -0.6352150000     1.3478940000     0.2015220000
    5      C      -0.1508910000     0.0423020000     0.5405700000
    6      C      -0.9390460000    -0.7791770000     1.3714480000
    7      C       0.1204600000     2.2521790000    -0.6569980000
    8      C       1.3815120000     1.7401020000    -1.1290720000
    9      C       1.8517490000     0.4554370000    -0.8037050000
   10      C       1.1285480000    -0.4511940000     0.0480850000
   11      O      -0.3257680000     3.4124630000    -0.9581160000
   12      O       1.5648500000    -1.6133420000     0.3545890000
   13      C       2.1795890000     2.6659310000    -2.0194350000
   14      C       3.1697560000    -0.0633740000    -1.3358390000
   15      C       4.3522410000     0.1164120000    -0.3614370000
   16      C       5.6696230000    -0.4547740000    -0.9007230000
   17      C       6.8674860000    -0.2772320000     0.0414890000
   18      C       8.1804600000    -0.8458330000    -0.5124490000
   19      C       9.3891620000    -0.6584410000     0.4136860000
   20      C      10.6968420000    -1.2250480000    -0.1540480000
   21      C      11.9121030000    -1.0338700000     0.7623430000
   22      C      13.2162330000    -1.5983290000     0.1840810000
   23      C      14.4311110000    -1.4044770000     1.0962800000
   24      Cl     -3.1040010000    -1.4392080000     2.8977910000
   25      Cl     -4.1980200000     1.5217740000     2.1384990000
   26      H      -2.2280540000     2.7517460000     0.4448680000
   27      H      -0.5519780000    -1.7617580000     1.6141670000
   28      H       1.7042670000     3.6484020000    -2.0107640000
   29      H       2.2078430000     2.3162310000    -3.0621400000
   30      H       3.2214270000     2.7676230000    -1.6914150000
   31      H       3.4198080000     0.4152220000    -2.2899770000
   32      H       3.0542330000    -1.1377330000    -1.5181610000
   33      H       4.0905480000    -0.3785260000     0.5792840000
   34      H       4.4817430000     1.1831420000    -0.1365890000
   35      H       5.9023770000     0.0181370000    -1.8659530000
   36      H       5.5337110000    -1.5239580000    -1.1120630000
   37      H       6.6424360000    -0.7553420000     1.0037210000
   38      H       7.0007190000     0.7912150000     0.2585620000
   39      H       8.3954960000    -0.3748050000    -1.4813950000
   40      H       8.0492510000    -1.9162230000    -0.7205890000
   41      H       9.1798700000    -1.1318590000     1.3820380000
   42      H       9.5207080000     0.4114600000     0.6233990000
   43      H      10.9014770000    -0.7538720000    -1.1248740000
   44      H      10.5661310000    -2.2958310000    -0.3602270000
   45      H      11.7138600000    -1.5075870000     1.7327440000
   46      H      12.0449680000     0.0359280000     0.9706030000
   47      H      13.4131980000    -1.1262320000    -0.7870800000
   48      H      13.0850190000    -2.6681500000    -0.0232410000
   49      H      14.6190840000    -0.3425700000     1.2921330000
   50      H      15.3423300000    -1.8185220000     0.6510280000
   51      H      14.2883000000    -1.8988080000     2.0640260000
 ----------------------------------------------------------------

   10   -1887.0609094331      8.90e-06  Convergence criterion met
 Total energy in the final basis set =    -1887.3304012535

                    Orbital Energies (a.u.)
 --------------------------------------------------------------

 Alpha MOs
 -- Occupied --
********-101.5519 -19.0163 -19.0150 -10.2261 -10.2256 -10.1751 -10.1733
-10.1703 -10.1703 -10.1649 -10.1642 -10.1640 -10.1634 -10.1630 -10.1628
-10.1626 -10.1607 -10.1578 -10.1576 -10.1561 -10.1493 -10.1489 -10.1374
-10.1331  -9.4652  -9.4651  -7.2298  -7.2296  -7.2201  -7.2201  -7.2198
 -7.2198  -0.9399  -0.9366  -0.8976  -0.8470  -0.8197  -0.8160  -0.8028
 -0.7873  -0.7666  -0.7379  -0.7358  -0.7257  -0.7031  -0.6732  -0.6474
 -0.6291  -0.6109  -0.5947  -0.5815  -0.5775  -0.5744  -0.5602  -0.5316
 -0.4974  -0.4867  -0.4741  -0.4711  -0.4613  -0.4508  -0.4391  -0.4345
 -0.4267  -0.4243  -0.4200  -0.4134  -0.4093  -0.4019  -0.3970  -0.3956
 -0.3915  -0.3858  -0.3770  -0.3671  -0.3629  -0.3594  -0.3555  -0.3540
 -0.3488  -0.3409  -0.3392  -0.3382  -0.3313  -0.3287  -0.3252  -0.3238
 -0.3227  -0.3215  -0.3212  -0.3163  -0.3123  -0.3018  -0.2996  -0.2929
 -0.2408  -0.2250  -0.2132  -0.1994  -0.1906  -0.1103

          Ground-State Mulliken Net Atomic Charges

     Atom                 Charge (a.u.)
  ----------------------------------------
      1 C                    -0.563304
      2 C                     3.119242
      3 C                     2.795785
      4 C                    -2.921946
      5 C                    -2.456438
      6 C                    -0.431033
      7 C                    -2.916728
      8 C                    -1.680951
      9 C                    -0.575206
     10 C                    -2.952627
     11 O                    -0.379065
     12 O                    -0.284837
     13 C                     0.762424
     14 C                    -1.199343
     15 C                    -4.377534
     16 C                    -1.810177
     17 C                     0.003520
     18 C                     2.009015
     19 C                     2.150732
     20 C                     2.064348
     21 C                     1.257825
     22 C                     0.446303
     23 C                    -0.136406
     24 Cl                    1.264523
     25 Cl                    1.230085
     26 H                     0.191316
     27 H                     0.192335
     28 H                     0.173570
     29 H                     0.158788
     30 H                     0.188019
     31 H                     0.167658
     32 H                     0.018448
     33 H                     0.085920
     34 H                    -0.062160
     35 H                     0.256989
     36 H                     0.239877
     37 H                     0.135363
     38 H                     0.197147
     39 H                     0.099438
     40 H                     0.095024
     41 H                     0.110786
     42 H                     0.105785
     43 H                     0.132246
     44 H                     0.132287
     45 H                     0.107254
     46 H                     0.108602
     47 H                     0.120374
     48 H                     0.118699
     49 H                     0.139339
     50 H                     0.229748
     51 H                     0.138940
  ----------------------------------------
  Sum of atomic charges =    -2.000000

                    Cartesian Multipole Moments
 -----------------------------------------------------------------
    Charge (ESU x 10^10)
                -9.6064
    Dipole Moment (Debye)
         X      -0.9043      Y      -7.7650      Z      -0.5933
       Tot       7.8399
    Quadrupole Moments (Debye-Ang)
        XX    -228.6187     XY       9.9701     YY    -232.1445
        XZ      16.7847     YZ      14.6527     ZZ    -198.7302

 Total job time:  1908.90s(wall), 13651.76s(cpu)
        *  Thank you very much for using Q-Chem.  Have a nice day.  *
