 Gaussian 16, Revision A.03,
 Gaussian 16:  ES64L-G16RevA.03 25-Dec-2016

 --------------------------------------
 #P UB3LYP/6-311++G(d,p) nosym opt freq
 --------------------------------------

 -------
 Reduced
 -------
 Symbolic Z-matrix:
 Charge = -2 Multiplicity = 1

 SCF Done:  E(UB3LYP) =  -1887.09325401     A.U. after   60 cycles
 SCF Done:  E(UB3LYP) =  -1887.09325519     A.U. after   36 cycles
 SCF Done:  E(UB3LYP) =  -1887.09325534     A.U. after   23 cycles
 Optimization completed.
    -- Stationary point found.
 Normal termination of Gaussian 16 at Sun Jan  7 21:36:14 2024.

 ----------------------------------------------------------------------
 #P Geom=AllCheck Guess=TCheck SCRF=Check GenChk UB3LYP/6-311++G(d,p) F
 req
 ----------------------------------------------------------------------

 Structure from the checkpoint file:  "254-an.chk"
 -------
 Reduced
 -------
 Charge = -2 Multiplicity = 1

                          Input orientation:
 ---------------------------------------------------------------------
 Center     Atomic      Atomic             Coordinates (Angstroms)
 Number     Number       Type             X           Y           Z
 ---------------------------------------------------------------------
      1          6           0       -1.881789    1.760908    0.713918
      2          6           0       -2.632764    0.938939    1.523641
      3          6           0       -2.154479   -0.352147    1.857112
      4          6           0       -0.635215    1.347894    0.201522
      5          6           0       -0.150891    0.042302    0.540570
      6          6           0       -0.939046   -0.779177    1.371448
      7          6           0        0.120460    2.252179   -0.656998
      8          6           0        1.381512    1.740102   -1.129072
      9          6           0        1.851749    0.455437   -0.803705
     10          6           0        1.128548   -0.451194    0.048085
     11          8           0       -0.325768    3.412463   -0.958116
     12          8           0        1.564850   -1.613342    0.354589
     13          6           0        2.179589    2.665931   -2.019435
     14          6           0        3.169756   -0.063374   -1.335839
     15          6           0        4.352241    0.116412   -0.361437
     16          6           0        5.669623   -0.454774   -0.900723
     17          6           0        6.867486   -0.277232    0.041489
     18          6           0        8.180460   -0.845833   -0.512449
     19          6           0        9.389162   -0.658441    0.413686
     20          6           0       10.696842   -1.225048   -0.154048
     21          6           0       11.912103   -1.033870    0.762343
     22          6           0       13.216233   -1.598329    0.184081
     23          6           0       14.431111   -1.404477    1.096280
     24         17           0       -3.104001   -1.439208    2.897791
     25         17           0       -4.198020    1.521774    2.138499
     26          1           0       -2.228054    2.751746    0.444868
     27          1           0       -0.551978   -1.761758    1.614167
     28          1           0        1.704267    3.648402   -2.010764
     29          1           0        2.207843    2.316231   -3.062140
     30          1           0        3.221427    2.767623   -1.691415
     31          1           0        3.419808    0.415222   -2.289977
     32          1           0        3.054233   -1.137733   -1.518161
     33          1           0        4.090548   -0.378526    0.579284
     34          1           0        4.481743    1.183142   -0.136589
     35          1           0        5.902377    0.018137   -1.865953
     36          1           0        5.533711   -1.523958   -1.112063
     37          1           0        6.642436   -0.755342    1.003721
     38          1           0        7.000719    0.791215    0.258562
     39          1           0        8.395496   -0.374805   -1.481395
     40          1           0        8.049251   -1.916223   -0.720589
     41          1           0        9.179870   -1.131859    1.382038
     42          1           0        9.520708    0.411460    0.623399
     43          1           0       10.901477   -0.753872   -1.124874
     44          1           0       10.566131   -2.295831   -0.360227
     45          1           0       11.713860   -1.507587    1.732744
     46          1           0       12.044968    0.035928    0.970603
     47          1           0       13.413198   -1.126232   -0.787080
     48          1           0       13.085019   -2.668150   -0.023241
     49          1           0       14.619084   -0.342570    1.292133
     50          1           0       15.342330   -1.818522    0.651028
     51          1           0       14.288300   -1.898808    2.064026
 ---------------------------------------------------------------------

 SCF Done:  E(UB3LYP) =  -1887.09325534     A.U. after    3 cycles

 Alpha  occ. eigenvalues -- -101.37794-101.37768 -18.83873 -18.83822 -10.04676
 Alpha  occ. eigenvalues --  -10.04630 -10.03751 -10.03635 -10.03613 -10.03290
 Alpha  occ. eigenvalues --  -10.02777 -10.02696 -10.01649 -10.00332  -9.99531
 Alpha  occ. eigenvalues --   -9.99488  -9.98411  -9.98400  -9.98326  -9.96949
 Alpha  occ. eigenvalues --   -9.96601  -9.96559  -9.96287  -9.95583  -9.95302
 Alpha  occ. eigenvalues --   -9.29245  -9.29220  -7.05670  -7.05645  -7.04750
 Alpha  occ. eigenvalues --   -7.04724  -7.04720  -7.04694  -0.75925  -0.75525
 Alpha  occ. eigenvalues --   -0.71666  -0.68190  -0.67141  -0.65574  -0.63935
 Alpha  occ. eigenvalues --   -0.62697  -0.60605  -0.58263  -0.55180  -0.55064
 Alpha  occ. eigenvalues --   -0.53927  -0.51160  -0.48349  -0.46075  -0.45089
 Alpha  occ. eigenvalues --   -0.44711  -0.43679  -0.41817  -0.40475  -0.37722
 Alpha  occ. eigenvalues --   -0.35593  -0.34664  -0.33167  -0.31337  -0.30376
 Alpha  occ. eigenvalues --   -0.30194  -0.29297  -0.28705  -0.27971  -0.27359
 Alpha  occ. eigenvalues --   -0.26594  -0.25826  -0.24967  -0.23911  -0.23806
 Alpha  occ. eigenvalues --   -0.22924  -0.22711  -0.22088  -0.21686  -0.21435
 Alpha  occ. eigenvalues --   -0.20983  -0.20735  -0.20111  -0.19832  -0.19400
 Alpha  occ. eigenvalues --   -0.19326  -0.18693  -0.17891  -0.17432  -0.17341
 Alpha  occ. eigenvalues --   -0.17271  -0.16813  -0.16381  -0.15825  -0.15238
 Alpha  occ. eigenvalues --   -0.14728  -0.13810  -0.13131  -0.12814  -0.12497
 Alpha  occ. eigenvalues --   -0.11586  -0.05584  -0.04122  -0.02619  -0.01654
 Alpha  occ. eigenvalues --   -0.00812   0.08278
 Alpha virt. eigenvalues --    0.08978   0.11275   0.11508   0.11649   0.13426
 Alpha virt. eigenvalues --    0.13440   0.14006   0.14518   0.14915   0.15118
 Alpha virt. eigenvalues --    0.15839   0.16340   0.16450   0.16744   0.16936

  Beta  occ. eigenvalues -- -101.37794-101.37768 -18.83873 -18.83822 -10.04676
  Beta  occ. eigenvalues --  -10.04630 -10.03751 -10.03635 -10.03613 -10.03290
  Beta  occ. eigenvalues --  -10.02777 -10.02696 -10.01649 -10.00332  -9.99531
  Beta  occ. eigenvalues --   -9.99488  -9.98411  -9.98400  -9.98326  -9.96949
  Beta  occ. eigenvalues --   -9.96601  -9.96559  -9.96287  -9.95583  -9.95302
  Beta  occ. eigenvalues --   -9.29245  -9.29220  -7.05670  -7.05645  -7.04750
  Beta  occ. eigenvalues --   -7.04724  -7.04720  -7.04694  -0.75925  -0.75525
  Beta  occ. eigenvalues --   -0.71666  -0.68190  -0.67141  -0.65574  -0.63935
  Beta  occ. eigenvalues --   -0.62697  -0.60605  -0.58263  -0.55180  -0.55064
  Beta  occ. eigenvalues --   -0.53927  -0.51160  -0.48349  -0.46075  -0.45089
  Beta  occ. eigenvalues --   -0.44711  -0.43679  -0.41817  -0.40475  -0.37722
  Beta  occ. eigenvalues --   -0.35593  -0.34664  -0.33167  -0.31337  -0.30376
  Beta  occ. eigenvalues --   -0.30194  -0.29297  -0.28705  -0.27971  -0.27359
  Beta  occ. eigenvalues --   -0.26594  -0.25826  -0.24967  -0.23911  -0.23806
  Beta  occ. eigenvalues --   -0.22924  -0.22711  -0.22088  -0.21686  -0.21435
  Beta  occ. eigenvalues --   -0.20983  -0.20735  -0.20111  -0.19832  -0.19400
  Beta  occ. eigenvalues --   -0.19326  -0.18693  -0.17891  -0.17432  -0.17341
  Beta  occ. eigenvalues --   -0.17271  -0.16813  -0.16381  -0.15825  -0.15238
  Beta  occ. eigenvalues --   -0.14728  -0.13810  -0.13131  -0.12814  -0.12497
  Beta  occ. eigenvalues --   -0.11586  -0.05584  -0.04122  -0.02619  -0.01654
  Beta  occ. eigenvalues --   -0.00812   0.08278
  Beta virt. eigenvalues --    0.08978   0.11275   0.11508   0.11649   0.13426
  Beta virt. eigenvalues --    0.13440   0.14006   0.14518   0.14915   0.15118
  Beta virt. eigenvalues --    0.15839   0.16340   0.16450   0.16744   0.16936

 Mulliken charges and spin densities:
               1          2
     1  C   -0.484758   0.000000
     2  C    0.463173  -0.000000
     3  C    0.382891  -0.000000
     4  C   -0.456707   0.000000
     5  C   -0.455952   0.000000
     6  C   -0.464589  -0.000000
     7  C   -0.840358  -0.000000
     8  C    0.740862   0.000000
     9  C    0.714050   0.000000
    10  C   -0.962336  -0.000000
    11  O   -0.475367   0.000000
    12  O   -0.440864   0.000000
    13  C   -0.450996  -0.000000
    14  C   -0.460272  -0.000000
    15  C   -0.972341   0.000000
    16  C   -0.240528   0.000000
    17  C    0.004040  -0.000000
    18  C    0.260733   0.000000
    19  C    0.057038   0.000000
    20  C   -0.338361  -0.000000
    21  C    0.582072   0.000000
    22  C   -1.948805  -0.000000
    23  C    1.713652   0.000000
    24  Cl   0.443851   0.000000
    25  Cl   0.440465   0.000000
    26  H    0.188891  -0.000000
    27  H    0.186347  -0.000000
    28  H    0.190334   0.000000
    29  H    0.121780  -0.000000
    30  H    0.116453  -0.000000
    31  H    0.143104   0.000000
    32  H    0.218761   0.000000
    33  H    0.213726  -0.000000
    34  H    0.086528  -0.000000
    35  H    0.083824  -0.000000
    36  H    0.106015  -0.000000
    37  H    0.126146   0.000000
    38  H    0.118756   0.000000
    39  H    0.105997  -0.000000
    40  H    0.116895  -0.000000
    41  H    0.089111  -0.000000
    42  H    0.086465  -0.000000
    43  H    0.095279   0.000000
    44  H    0.097450   0.000000
    45  H    0.123110  -0.000000
    46  H    0.112956  -0.000000
    47  H   -0.032474  -0.000000
    48  H   -0.019659  -0.000000
    49  H   -0.285859  -0.000000
    50  H   -0.935386  -0.000000
    51  H   -0.265143  -0.000000
 Sum of Mulliken charges =  -2.00000   0.00000

 Dipole moment (field-independent basis, Debye):
    X=            -34.2666    Y=             -1.5338    Z=             -4.0655  Tot=             34.5410
 Quadrupole moment (field-independent basis, Debye-Ang):
   XX=           -777.4774   YY=           -235.5897   ZZ=           -206.5365
   XY=             67.5929   XZ=            -13.2893   YZ=             14.9098

  Exact polarizability:5215.519-699.325 963.175 159.207 -50.317 889.384
 Approx polarizability:****************3317.2375796.739********1295.197

                      1                      2                      3
                      A                      A                      A
 Frequencies --     11.2047                16.6797                25.9103
 Red. masses --      6.0395                 6.5557                 1.5581
 Frc consts  --      0.0004                 0.0011                 0.0006
 IR Inten    --      1.0994                 0.7928                 0.0743

                      4                      5                      6
                      A                      A                      A
 Frequencies --     32.8227                41.5691                54.2119
 Red. masses --      4.2475                 5.5662                 9.3286
 Frc consts  --      0.0027                 0.0057                 0.0162
 IR Inten    --      5.8062                 6.5575                 1.2712

                      7                      8                      9
                      A                      A                      A
 Frequencies --     71.4846                75.8288                80.2882
 Red. masses --      4.6964                 3.2454                 1.6579
 Frc consts  --      0.0141                 0.0110                 0.0063
 IR Inten    --      0.8346                 0.3122                 0.1389

                     10                     11                     12
                      A                      A                      A
 Frequencies --    104.5679               118.5650               122.2244
 Red. masses --      1.7225                 4.3163                 1.6308
 Frc consts  --      0.0111                 0.0357                 0.0144
 IR Inten    --      1.1442                 1.2631                 0.1677

                     13                     14                     15
                      A                      A                      A
 Frequencies --    124.8370               127.9218               137.3312
 Red. masses --      1.9696                 2.3161                 6.6411
 Frc consts  --      0.0181                 0.0223                 0.0738
 IR Inten    --      0.3875                 1.2967                 6.1684

                     16                     17                     18
                      A                      A                      A
 Frequencies --    156.3602               161.3678               167.4001
 Red. masses --      3.5524                 2.4959                 2.1405
 Frc consts  --      0.0512                 0.0383                 0.0353
 IR Inten    --      0.2764                 0.1335                 0.4601

                     19                     20                     21
                      A                      A                      A
 Frequencies --    188.6471               193.7859               214.7095
 Red. masses --      6.6572                 7.3644                 6.1368
 Frc consts  --      0.1396                 0.1629                 0.1667
 IR Inten    --      3.4500                 1.4645                 0.0451

                     22                     23                     24
                      A                      A                      A
 Frequencies --    229.1133               258.3920               270.9291
 Red. masses --      4.1491                 1.1139                 5.8656
 Frc consts  --      0.1283                 0.0438                 0.2537
 IR Inten    --      0.4512                 3.5888                 0.3550

                     25                     26                     27
                      A                      A                      A
 Frequencies --    285.4649               293.1389               322.7107
 Red. masses --      9.6608                 7.7592                 3.7351
 Frc consts  --      0.4638                 0.3928                 0.2292
 IR Inten    --      0.3363                 1.5753                 2.9780

                     28                     29                     30
                      A                      A                      A
 Frequencies --    340.1001               351.1802               354.5603
 Red. masses --      3.2371                 4.4867                 3.4055
 Frc consts  --      0.2206                 0.3260                 0.2522
 IR Inten    --      1.1866                 1.9726                 8.3640

                     31                     32                     33
                      A                      A                      A
 Frequencies --    390.6317               416.3890               436.9462
 Red. masses --      4.0343                 6.9607                 4.5188
 Frc consts  --      0.3627                 0.7111                 0.5083
 IR Inten    --      1.3388               102.3755                 2.9516

                     34                     35                     36
                      A                      A                      A
 Frequencies --    451.7302               458.6494               465.0217
 Red. masses --      4.6587                 4.2049                 4.7762
 Frc consts  --      0.5601                 0.5211                 0.6085
 IR Inten    --      5.6072                 1.0727                 1.5093

                     37                     38                     39
                      A                      A                      A
 Frequencies --    483.3425               498.0471               520.2450
 Red. masses --     12.4099                 3.2240                 5.6340
 Frc consts  --      1.7082                 0.4712                 0.8984
 IR Inten    --   1738.2925                 9.1130                 9.1050

                     40                     41                     42
                      A                      A                      A
 Frequencies --    565.6345               603.3826               645.0728
 Red. masses --      6.9053                 6.2404                 4.9865
 Frc consts  --      1.3017                 1.3386                 1.2225
 IR Inten    --     42.9136               273.7081                 6.1769

                     43                     44                     45
                      A                      A                      A
 Frequencies --    666.9534               687.9559               702.2045
 Red. masses --      4.4023                 5.4209                 3.1918
 Frc consts  --      1.1538                 1.5116                 0.9273
 IR Inten    --     68.5992                38.0307                28.5435

                     46                     47                     48
                      A                      A                      A
 Frequencies --    723.8905               728.5374               733.2946
 Red. masses --      1.0636                 1.0809                 5.0467
 Frc consts  --      0.3284                 0.3380                 1.5989
 IR Inten    --     24.3097                 8.1154                11.0609

                     49                     50                     51
                      A                      A                      A
 Frequencies --    735.7450               756.1895               790.4019
 Red. masses --      1.2442                 1.2372                 4.3806
 Frc consts  --      0.3968                 0.4168                 1.6124
 IR Inten    --      1.8413                16.9254                 0.6754

                     52                     53                     54
                      A                      A                      A
 Frequencies --    793.5566               843.5513               873.4413
 Red. masses --      1.4017                 1.5016                 2.5619
 Frc consts  --      0.5201                 0.6295                 1.1515
 IR Inten    --      0.8248                18.0038                 5.2339

                     55                     56                     57
                      A                      A                      A
 Frequencies --    890.0050               904.4026               907.0603
 Red. masses --      1.9580                 1.3929                 1.6940
 Frc consts  --      0.9138                 0.6713                 0.8212
 IR Inten    --     15.6803                 0.3322                14.2712

                     58                     59                     60
                      A                      A                      A
 Frequencies --    929.7952               935.2678               974.4902
 Red. masses --      1.4028                 2.0809                 4.4029
 Frc consts  --      0.7145                 1.0724                 2.4634
 IR Inten    --     17.9130                24.8640                 6.7478

                     61                     62                     63
                      A                      A                      A
 Frequencies --    983.4846               990.5209              1000.0732
 Red. masses --      1.5525                 3.1717                 3.4820
 Frc consts  --      0.8848                 1.8335                 2.0518
 IR Inten    --      1.9168                41.9076                10.9558

                     64                     65                     66
                      A                      A                      A
 Frequencies --   1010.0937              1033.5574              1036.8242
 Red. masses --      3.5730                 2.5409                 1.3433
 Frc consts  --      2.1479                 1.5992                 0.8508
 IR Inten    --      8.3947                 6.1851                24.0912

                     67                     68                     69
                      A                      A                      A
 Frequencies --   1041.2760              1053.3528              1060.6991
 Red. masses --      1.5310                 2.6157                 2.1715
 Frc consts  --      0.9780                 1.7100                 1.4394
 IR Inten    --      2.4652                12.2853                 4.3213

                     70                     71                     72
                      A                      A                      A
 Frequencies --   1061.7637              1062.7222              1076.8367
 Red. masses --      2.2031                 1.6702                 2.8761
 Frc consts  --      1.4633                 1.1114                 1.9650
 IR Inten    --     11.2866                31.1919                34.3476

                     73                     74                     75
                      A                      A                      A
 Frequencies --   1089.5949              1130.2937              1134.9237
 Red. masses --      1.7286                 2.1611                 2.7476
 Frc consts  --      1.2092                 1.6267                 2.0852
 IR Inten    --    103.7095                12.1294                 4.1151

                     76                     77                     78
                      A                      A                      A
 Frequencies --   1174.9984              1178.1068              1202.8217
 Red. masses --      5.5068                 6.2960                 2.0151
 Frc consts  --      4.4794                 5.1486                 1.7177
 IR Inten    --     90.9986               223.5416                26.0562

                     79                     80                     81
                      A                      A                      A
 Frequencies --   1210.3916              1213.0333              1221.9305
 Red. masses --      1.3974                 3.2226                 1.2602
 Frc consts  --      1.2062                 2.7938                 1.1086
 IR Inten    --      9.6477                36.0534                 5.1581

                     82                     83                     84
                      A                      A                      A
 Frequencies --   1239.0639              1259.5439              1273.8115
 Red. masses --      1.5539                 1.3004                 1.3712
 Frc consts  --      1.4056                 1.2155                 1.3109
 IR Inten    --     30.3942                 0.4190                 0.0626

                     85                     86                     87
                      A                      A                      A
 Frequencies --   1295.6504              1302.9835              1317.8863
 Red. masses --      1.3154                 1.2795                 1.0272
 Frc consts  --      1.3010                 1.2798                 1.0512
 IR Inten    --      3.8461                 5.8257                41.1871

                     88                     89                     90
                      A                      A                      A
 Frequencies --   1323.3831              1324.9705              1329.1007
 Red. masses --      1.1751                 1.0713                 1.3665
 Frc consts  --      1.2125                 1.1080                 1.4223
 IR Inten    --     10.5636                58.9779                 3.2020

                     91                     92                     93
                      A                      A                      A
 Frequencies --   1333.3563              1333.7136              1347.0560
 Red. masses --      1.1059                 1.1145                 7.8880
 Frc consts  --      1.1584                 1.1680                 8.4331
 IR Inten    --     26.5994                 1.4417               698.2942

                     94                     95                     96
                      A                      A                      A
 Frequencies --   1349.4995              1357.6058              1366.0362
 Red. masses --      2.9144                 1.7840                 1.3847
 Frc consts  --      3.1271                 1.9373                 1.5224
 IR Inten    --     29.5774                45.3003               158.8261

                     97                     98                     99
                      A                      A                      A
 Frequencies --   1371.9892              1384.5159              1391.1627
 Red. masses --      1.4690                 1.5619                 1.5680
 Frc consts  --      1.6292                 1.7640                 1.7880
 IR Inten    --     11.2957                36.1674               133.3193

                    100                    101                    102
                      A                      A                      A
 Frequencies --   1392.5056              1403.0614              1428.3631
 Red. masses --      1.5716                 1.2759                 3.0190
 Frc consts  --      1.7955                 1.4798                 3.6290
 IR Inten    --     62.3415               430.8369              1071.2986

                    103                    104                    105
                      A                      A                      A
 Frequencies --   1432.1413              1444.7036              1470.9127
 Red. masses --      2.7585                 4.3873                 1.7363
 Frc consts  --      3.3335                 5.3951                 2.2133
 IR Inten    --    603.2677              2055.4870               401.0675

                    106                    107                    108
                      A                      A                      A
 Frequencies --   1473.8524              1479.6245              1481.0081
 Red. masses --      2.2342                 1.0694                 1.0872
 Frc consts  --      2.8594                 1.3794                 1.4051
 IR Inten    --    940.7922                 2.1520                 6.6871

                    109                    110                    111
                      A                      A                      A
 Frequencies --   1481.8754              1484.4215              1486.3557
 Red. masses --      1.0855                 1.0924                 1.9827
 Frc consts  --      1.4044                 1.4182                 2.5808
 IR Inten    --      1.9341                14.5719               545.0980

                    112                    113                    114
                      A                      A                      A
 Frequencies --   1486.4417              1488.1036              1491.6542
 Red. masses --      1.0428                 1.2087                 1.9593
 Frc consts  --      1.3575                 1.5771                 2.5685
 IR Inten    --    354.4766                42.5432               189.3935

                    115                    116                    117
                      A                      A                      A
 Frequencies --   1494.0779              1500.2767              1503.2787
 Red. masses --      1.0924                 1.1106                 1.1798
 Frc consts  --      1.4368                 1.4728                 1.5708
 IR Inten    --     85.4625                69.0315                67.6271

                    118                    119                    120
                      A                      A                      A
 Frequencies --   1507.0356              1512.4921              1555.6309
 Red. masses --      1.0996                 1.0996                 7.3087
 Frc consts  --      1.4714                 1.4821                10.4209
 IR Inten    --     63.9041                 3.3249                32.0415

                    121                    122                    123
                      A                      A                      A
 Frequencies --   1570.6968              2962.9221              2974.5083
 Red. masses --      8.8788                 1.0525                 1.0616
 Frc consts  --     12.9059                 5.4440                 5.5339
 IR Inten    --   8625.9447               335.1148                15.4321

                    124                    125                    126
                      A                      A                      A
 Frequencies --   2982.7506              2985.4530              2987.0304
 Red. masses --      1.0575                 1.0573                 1.0537
 Frc consts  --      5.5430                 5.5521                 5.5394
 IR Inten    --      2.8172                 0.4396                 1.2226

                    127                    128                    129
                      A                      A                      A
 Frequencies --   2988.4912              2991.6196              2993.5485
 Red. masses --      1.0557                 1.0469                 1.0661
 Frc consts  --      5.5550                 5.5206                 5.6291
 IR Inten    --     10.6504                 8.9666                45.2368

                    130                    131                    132
                      A                      A                      A
 Frequencies --   2994.0733              2998.8481              3000.4646
 Red. masses --      1.0714                 1.0820                 1.0770
 Frc consts  --      5.6587                 5.7332                 5.7129
 IR Inten    --      2.4571                17.2644               100.5354

                    133                    134                    135
                      A                      A                      A
 Frequencies --   3001.5850              3003.6414              3007.8162
 Red. masses --      1.0691                 1.0920                 1.0812
 Frc consts  --      5.6753                 5.8044                 5.7629
 IR Inten    --     45.0157                49.3904                85.8981

                    136                    137                    138
                      A                      A                      A
 Frequencies --   3007.9923              3011.7215              3023.2739
 Red. masses --      1.0851                 1.0979                 1.1036
 Frc consts  --      5.7848                 5.8672                 5.9430
 IR Inten    --     88.8007                18.7176                12.1374

                    139                    140                    141
                      A                      A                      A
 Frequencies --   3034.0835              3037.3249              3044.3065
 Red. masses --      1.1032                 1.0978                 1.1051
 Frc consts  --      5.9833                 5.9671                 6.0344
 IR Inten    --      5.5897                13.4518                68.8966

                    142                    143                    144
                      A                      A                      A
 Frequencies --   3052.3956              3054.2460              3063.0964
 Red. masses --      1.1008                 1.1022                 1.1017
 Frc consts  --      6.0431                 6.0580                 6.0902
 IR Inten    --     40.0689                13.6762                56.9057

                    145                    146                    147
                      A                      A                      A
 Frequencies --   3093.7342              3186.1445              3187.9371
 Red. masses --      1.0938                 1.0894                 1.0897
 Frc consts  --      6.1680                 6.5156                 6.5250
 IR Inten    --     15.3793                 2.6828               122.9761

 - Thermochemistry -
 -------------------
 Temperature   298.150 Kelvin.  Pressure   1.00000 Atm.
 Atom     1 has atomic number  6 and mass  12.00000

 Molecular mass:   380.13099 amu.
 Principal axes and moments of inertia in atomic units:
                           1         2         3
     Eigenvalues --  4371.08193********************
           X            0.98817   0.02733   0.15092
           Y           -0.12259   0.73208   0.67009
           Z           -0.09218  -0.68067   0.72677
 This molecule is an asymmetric top.
 Rotational symmetry number  1.
 Warning -- assumption of classical behavior for rotation
           may cause significant error
 Rotational temperatures (Kelvin)      0.01982     0.00200     0.00188
 Rotational constants (GHZ):           0.41288     0.04166     0.03914
 Zero-point vibrational energy    1097880.5 (Joules/Mol)
                                  262.39975 (Kcal/Mol)
 Warning -- explicit consideration of  41 degrees of freedom as
           vibrations may cause significant error
 Vibrational temperatures:     16.12    24.00    37.28    47.22    59.81
          (Kelvin)             78.00   102.85   109.10   115.52   150.45
                              170.59   175.85   179.61   184.05   197.59
                              224.97   232.17   240.85   271.42   278.81
                              308.92   329.64   371.77   389.81   410.72
                              421.76   464.31   489.33   505.27   510.13
                              562.03   599.09   628.67   649.94   659.89
                              669.06   695.42   716.58   748.52   813.82
                              868.13   928.12   959.60   989.82  1010.32
                             1041.52  1048.20  1055.05  1058.57  1087.99
                             1137.21  1141.75  1213.68  1256.69  1280.52
                             1301.23  1305.06  1337.77  1345.64  1402.07
                             1415.01  1425.14  1438.88  1453.30  1487.06
                             1491.76  1498.16  1515.54  1526.11  1527.64
                             1529.02  1549.33  1567.68  1626.24  1632.90
                             1690.56  1695.03  1730.59  1741.48  1745.28
                             1758.09  1782.74  1812.20  1832.73  1864.15
                             1874.70  1896.14  1904.05  1906.34  1912.28
                             1918.40  1918.92  1938.11  1941.63  1953.29
                             1965.42  1973.99  1992.01  2001.57  2003.50
                             2018.69  2055.10  2060.53  2078.61  2116.32
                             2120.54  2128.85  2130.84  2132.09  2135.75
                             2138.53  2138.66  2141.05  2146.16  2149.64
                             2158.56  2162.88  2168.29  2176.14  2238.21
                             2259.88  4262.98  4279.65  4291.51  4295.40
                             4297.67  4299.77  4304.27  4307.05  4307.80
                             4314.67  4317.00  4318.61  4321.57  4327.58
                             4327.83  4333.20  4349.82  4365.37  4370.03
                             4380.08  4391.72  4394.38  4407.11  4451.19
                             4584.15  4586.73

 Zero-point correction=                           0.418161 (Hartree/Particle)
 Thermal correction to Energy=                    0.445214
 Thermal correction to Enthalpy=                  0.446159
 Thermal correction to Gibbs Free Energy=         0.356281
 Sum of electronic and zero-point Energies=          -1886.675095
 Sum of electronic and thermal Energies=             -1886.648041
 Sum of electronic and thermal Enthalpies=           -1886.647097
 Sum of electronic and thermal Free Energies=        -1886.736975

                     E (Thermal)             CV                S
                      KCal/Mol        Cal/Mol-Kelvin    Cal/Mol-Kelvin
 Total                  279.376             98.724            189.164
 Electronic               0.000              0.000              0.000
 Translational            0.889              2.981             43.698
 Rotational               0.889              2.981             37.410
 Vibrational            277.599             92.762            108.056
 Vibration     1          0.593              1.987              7.785
 Vibration     2          0.593              1.986              6.995
 Vibration     3          0.593              1.985              6.120
 Vibration     4          0.594              1.983              5.651
 Vibration     5          0.594              1.981              5.183
 Vibration     6          0.596              1.976              4.658
 Vibration     7          0.598              1.968              4.112
 Vibration     8          0.599              1.965              3.996
 Vibration     9          0.600              1.963              3.884
 Vibration    10          0.605              1.946              3.367
 Vibration    11          0.609              1.934              3.124
 Vibration    12          0.610              1.931              3.065
 Vibration    13          0.610              1.928              3.024
 Vibration    14          0.611              1.925              2.977
 Vibration    15          0.614              1.916              2.841
 Vibration    16          0.620              1.896              2.593
 Vibration    17          0.622              1.890              2.534
 Vibration    18          0.624              1.883              2.464
 Vibration    19          0.633              1.855              2.241
 Vibration    20          0.635              1.849              2.191
 Vibration    21          0.645              1.819              2.003
 Vibration    22          0.652              1.797              1.886
 Vibration    23          0.667              1.749              1.673
 Vibration    24          0.675              1.727              1.590
 Vibration    25          0.683              1.701              1.501
 Vibration    26          0.688              1.687              1.456
 Vibration    27          0.708              1.630              1.296
 Vibration    28          0.720              1.595              1.212
 Vibration    29          0.728              1.573              1.161
 Vibration    30          0.730              1.566              1.146
 Vibration    31          0.758              1.490              0.998
 Vibration    32          0.780              1.435              0.904
 Vibration    33          0.797              1.390              0.836
 Vibration    34          0.810              1.357              0.791
 Vibration    35          0.817              1.342              0.770
 Vibration    36          0.822              1.328              0.752
 Vibration    37          0.840              1.287              0.701
 Vibration    38          0.854              1.254              0.663
 Vibration    39          0.875              1.205              0.609
 Vibration    40          0.922              1.106              0.513
 Vibration    41          0.962              1.025              0.444

                           ! Non-Optimized Parameters !
 Normal termination of Gaussian 16 at Mon Jan  8 00:30:15 2024.
