 Q-Chem 5.4, Q-Chem, Inc., Pleasanton, CA (2021)
 Q-Chem 5.4.0 for Intel X86 EM64T Linux

User input:
--------------------------------------------------------------
$molecule
-1 2
C                 -0.8439240000      2.7826340000      0.3480160000
C                 -1.5106560000      2.8853880000     -0.8584420000
C                 -0.9988580000      2.2477690000     -2.0050400000
C                  0.3536590000      2.0414180000      0.4491550000
C                  0.8711820000      1.3975730000     -0.7069040000
C                  0.1749960000      1.5160140000     -1.9210820000
C                  1.0483770000      1.9337550000      1.7139000000
C                  2.2672980000      1.1517350000      1.7355010000
C                  2.7939620000      0.5172860000      0.6184100000
C                  2.1270700000      0.6029660000     -0.6711070000
O                  0.6682170000      2.4671090000      2.8062530000
O                  2.5535510000      0.0438840000     -1.6995950000
O                  2.8475660000      1.0984490000      2.9525210000
H                 -1.2183870000      3.2640000000      1.2440800000
H                 -2.4308470000      3.4586250000     -0.9228510000
H                 -1.5237560000      2.3291200000     -2.9518520000
H                  0.5923610000      1.0137050000     -2.7861090000
H                  2.2297950000      1.6385230000      3.4966470000
S                  4.3626160000     -0.3179090000      0.7299800000
C                  3.9560210000     -2.0533590000      0.8056690000
C                  2.6515530000     -2.5528350000      0.8500800000
C                  5.0204070000     -2.9653330000      0.8408230000
C                  2.4260530000     -3.9249790000      0.9257000000
C                  4.7809130000     -4.3334730000      0.9182540000
C                  3.4787790000     -4.8445330000      0.9591300000
C                  3.2212180000     -6.3326730000      1.0020610000
H                  1.8164060000     -1.8642940000      0.8239810000
H                  6.0415960000     -2.5986970000      0.8090500000
H                  1.4013730000     -4.2855030000      0.9589330000
H                  5.6258370000     -5.0166970000      0.9472530000
H                  4.0187130000     -6.8612440000      1.5327760000
H                  3.1620560000     -6.7612950000     -0.0060390000
H                  2.2771150000     -6.5586690000      1.5058450000
$end
$rem
MAX_SCF_CYCLES=200
BASIS  =  6-311++G(d,p)
GUI  =  2
JOB_TYPE  =  SP
METHOD  =  B3LYP
SOLVENT_METHOD = COSMO
$end
$solvent
dielectric 37.219
opticaldielectric 1.43
$end

--------------------------------------------------------------

             Standard Nuclear Orientation (Angstroms)
    I     Atom           X                Y                Z
 ----------------------------------------------------------------
    1      C       4.2414119713     0.2325886863     0.9671125797
    2      C       4.8307291064     1.4527247322     0.6939748969
    3      C       4.1773177527     2.3825143947    -0.1377263367
    4      C       2.9827222965    -0.0988550159     0.4196816045
    5      C       2.3223276764     0.8383056065    -0.4196322609
    6      C       2.9411357293     2.0717609566    -0.6815405005
    7      C       2.3671611777    -1.3760213468     0.7090516242
    8      C       1.0733556287    -1.6378438145     0.1129757191
    9      C       0.4110849348    -0.7395224591    -0.7129837685
   10      C       0.9969285156     0.5533381803    -1.0295888239
   11      O       2.8715010793    -2.2813050355     1.4495419335
   12      O       0.4385287606     1.3971392471    -1.7565246984
   13      O       0.5691453318    -2.8465677986     0.4377007365
   14      H       4.7245570028    -0.4989320412     1.6045408191
   15      H       5.7992648115     1.6953696089     1.1212484694
   16      H       4.6412622051     3.3405345463    -0.3511315690
   17      H       2.4140520644     2.7674395420    -1.3241863605
   18      H       1.2737134951    -3.2113197906     1.0207390932
   19      S      -1.1200150116    -1.2117371900    -1.4897849830
   20      C      -2.3890891074    -0.3862966830    -0.5458920178
   21      C      -2.1445178320     0.3784754264     0.5979584473
   22      C      -3.7149233872    -0.5355876377    -0.9768509609
   23      C      -3.1995178981     0.9745612292     1.2842560267
   24      C      -4.7595501600     0.0638761430    -0.2807489018
   25      C      -4.5255248873     0.8350401836     0.8633421431
   26      C      -5.6578760945     1.5184338047     1.5937497699
   27      H      -1.1272963176     0.5053166786     0.9464007889
   28      H      -3.9274071006    -1.1268389600    -1.8620238250
   29      H      -2.9802506659     1.5637981482     2.1706943062
   30      H      -5.7776970210    -0.0718907691    -0.6363847507
   31      H      -6.5864589684     0.9448505570     1.5177228507
   32      H      -5.8579037051     2.5165082476     1.1847034001
   33      H      -5.4280495279     1.6438736500     2.6556572893
 ----------------------------------------------------------------

    9   -1279.2434425977      5.63e-06  Convergence criterion met
 Total energy in the final basis set =    -1279.2434425977
    4   -1279.3270430128      8.57e-06  Convergence criterion met
 Total energy in the final basis set =    -1279.3270430128

                    Orbital Energies (a.u.)
 --------------------------------------------------------------

 Alpha MOs
 -- Occupied --
-88.8511 -19.1551 -19.0964 -19.0859 -10.2412 -10.2398 -10.2307 -10.2051
-10.1925 -10.1821 -10.1804 -10.1802 -10.1766 -10.1757 -10.1754 -10.1748
-10.1739 -10.1733 -10.1729 -10.1722 -10.1615  -7.9370  -5.9009  -5.8971
 -5.8910  -1.0794  -1.0166  -1.0073  -0.8681  -0.8645  -0.8228  -0.7912
 -0.7580  -0.7552  -0.7483  -0.7191  -0.6836  -0.6605  -0.6266  -0.6140
 -0.6047  -0.5783  -0.5742  -0.5442  -0.5170  -0.5013  -0.4859  -0.4715
 -0.4652  -0.4554  -0.4470  -0.4457  -0.4315  -0.4262  -0.4206  -0.4184
 -0.4160  -0.4075  -0.3984  -0.3875  -0.3848  -0.3776  -0.3699  -0.3662
 -0.3517  -0.3511  -0.3433  -0.3412  -0.3287  -0.2862  -0.2755  -0.2707
 -0.2625  -0.2590  -0.2510  -0.2440  -0.2099  -0.1614

 Beta MOs
 -- Occupied --
-88.8511 -19.1543 -19.0897 -19.0813 -10.2395 -10.2389 -10.2277 -10.2050
-10.1918 -10.1822 -10.1804 -10.1791 -10.1768 -10.1757 -10.1746 -10.1742
-10.1741 -10.1733 -10.1729 -10.1722 -10.1615  -7.9370  -5.9009  -5.8971
 -5.8910  -1.0764  -1.0087  -0.9959  -0.8676  -0.8625  -0.8203  -0.7893
 -0.7562  -0.7536  -0.7482  -0.7173  -0.6774  -0.6578  -0.6246  -0.6132
 -0.6027  -0.5768  -0.5729  -0.5424  -0.5150  -0.4995  -0.4838  -0.4711
 -0.4639  -0.4549  -0.4461  -0.4333  -0.4295  -0.4218  -0.4196  -0.4177
 -0.4139  -0.4046  -0.3874  -0.3854  -0.3838  -0.3704  -0.3672  -0.3609
 -0.3506  -0.3423  -0.3411  -0.3348  -0.3268  -0.2857  -0.2650  -0.2595
 -0.2562  -0.2553  -0.2465  -0.2364  -0.2094

          Ground-State Mulliken Net Atomic Charges

     Atom                 Charge (a.u.)    Spin (a.u.)
  --------------------------------------------------------
      1 C                    -0.079813       0.083496
      2 C                    -0.582746      -0.018609
      3 C                    -0.489170       0.077669
      4 C                     0.133463      -0.034404
      5 C                     0.258086       0.081408
      6 C                     0.029191      -0.012852
      7 C                    -0.655129       0.206344
      8 C                    -0.729515       0.101135
      9 C                     2.290142       0.026792
     10 C                    -0.840955       0.060764
     11 O                    -0.537008       0.242191
     12 O                    -0.436732       0.166817
     13 O                    -0.232042       0.027967
     14 H                     0.207861      -0.004619
     15 H                     0.199893       0.000368
     16 H                     0.205129      -0.005267
     17 H                     0.201155       0.000420
     18 H                     0.314143      -0.003486
     19 S                     0.158577       0.004865
     20 C                    -0.151028       0.003358
     21 C                    -0.168013      -0.010351
     22 C                    -0.299204       0.006539
     23 C                    -0.305934      -0.003753
     24 C                    -0.779356       0.000471
     25 C                     0.491148       0.000306
     26 C                    -0.542545      -0.000634
     27 H                     0.215729       0.002883
     28 H                     0.212279      -0.000021
     29 H                     0.219800       0.000028
     30 H                     0.197818       0.000197
     31 H                     0.156690       0.000011
     32 H                     0.181607      -0.000019
     33 H                     0.156475      -0.000011
  --------------------------------------------------------
  Sum of atomic charges =    -1.000004

                    Cartesian Multipole Moments
 -----------------------------------------------------------------
    Charge (ESU x 10^10)
                -4.8032
    Dipole Moment (Debye)
         X      -4.7352      Y       3.9704      Z       3.2659
       Tot       6.9894
    Quadrupole Moments (Debye-Ang)
        XX    -134.9623     XY       9.8776     YY    -149.1002
        XZ      -7.2811     YZ      12.5430     ZZ    -145.3611

 Total job time:  119.98s(wall), 869.31s(cpu)
        *  Thank you very much for using Q-Chem.  Have a nice day.  *
