 Gaussian 16, Revision A.03,
 Gaussian 16:  ES64L-G16RevA.03 25-Dec-2016

 ----------------------------------------------------------------------
 #P UB3LYP/6-311++G(d,p) nosym opt freq SCRF=(PCM,Solvent=n,n-DiMethylF
 ormamide)
 ----------------------------------------------------------------------

 -------
 Radical
 -------
 Symbolic Z-matrix:
 Charge = -1 Multiplicity = 2

 SCF Done:  E(UB3LYP) =  -744.442547686     A.U. after   20 cycles
 SCF Done:  E(UB3LYP) =  -744.443074277     A.U. after   18 cycles
 SCF Done:  E(UB3LYP) =  -744.443388733     A.U. after   16 cycles
 SCF Done:  E(UB3LYP) =  -744.443464035     A.U. after   15 cycles
 SCF Done:  E(UB3LYP) =  -744.443491459     A.U. after   14 cycles
 SCF Done:  E(UB3LYP) =  -744.443501524     A.U. after   14 cycles
 SCF Done:  E(UB3LYP) =  -744.443504562     A.U. after   13 cycles
 SCF Done:  E(UB3LYP) =  -744.443505631     A.U. after   12 cycles
 SCF Done:  E(UB3LYP) =  -744.443506376     A.U. after   10 cycles
 SCF Done:  E(UB3LYP) =  -744.443506945     A.U. after   12 cycles
 SCF Done:  E(UB3LYP) =  -744.443507115     A.U. after   11 cycles
 Optimization completed.
    -- Stationary point found.
 Normal termination of Gaussian 16 at Sat Feb 10 12:08:43 2024.

 ----------------------------------------------------------------------
 #P Geom=AllCheck Guess=TCheck SCRF=Check GenChk UB3LYP/6-311++G(d,p) F
 req
 ----------------------------------------------------------------------

 Structure from the checkpoint file:  "114-rad.chk"
 -------
 Radical
 -------
 Charge = -1 Multiplicity = 2

                          Input orientation:
 ---------------------------------------------------------------------
 Center     Atomic      Atomic             Coordinates (Angstroms)
 Number     Number       Type             X           Y           Z
 ---------------------------------------------------------------------
      1          6           0       -3.068535   -3.212475   -0.667848
      2          6           0       -2.089979   -2.152060   -0.915746
      3          6           0       -2.496643   -0.832997   -0.912063
      4          6           0       -3.856717   -0.412535   -0.681078
      5          6           0       -4.815328   -1.472809   -0.469949
      6          6           0       -4.437333   -2.787144   -0.470433
      7          8           0       -2.747141   -4.437544   -0.598336
      8          8           0       -4.193416    0.816299   -0.678633
      9          6           0       -0.668601   -2.484093   -1.128415
     10          6           0       -0.082195   -3.426229   -2.058312
     11          6           0        0.389440   -1.869461   -0.495240
     12          6           0        1.330475   -3.319489   -1.929724
     13          7           0        1.584716   -2.366020   -0.967868
     14          6           0       -0.604481   -4.316117   -3.013055
     15          6           0        0.268864   -5.069592   -3.786023
     16          6           0        1.666388   -4.956323   -3.629822
     17          6           0        2.214545   -4.079909   -2.702100
     18          1           0       -1.772261   -0.047995   -1.109176
     19          1           0       -5.851555   -1.190220   -0.307952
     20          1           0       -5.166958   -3.573579   -0.299838
     21          1           0        0.378327   -1.114561    0.275643
     22          1           0        2.496577   -2.093718   -0.636465
     23          1           0       -1.675856   -4.420834   -3.130547
     24          1           0       -0.126657   -5.761434   -4.521669
     25          1           0        2.323219   -5.561082   -4.245146
     26          1           0        3.288142   -3.984199   -2.583955
 ---------------------------------------------------------------------

 SCF Done:  E(UB3LYP) =  -744.443507115     A.U. after    1 cycles

 Alpha  occ. eigenvalues --  -19.07507 -19.07435 -14.35680 -10.21912 -10.21677
 Alpha  occ. eigenvalues --  -10.20681 -10.20347 -10.17706 -10.17560 -10.17277
 Alpha  occ. eigenvalues --  -10.17133 -10.17034 -10.17026 -10.16675 -10.16264
 Alpha  occ. eigenvalues --  -10.16183 -10.15931  -0.99507  -0.99005  -0.98318
 Alpha  occ. eigenvalues --   -0.84426  -0.82791  -0.79171  -0.74702  -0.73856
 Alpha  occ. eigenvalues --   -0.71512  -0.68042  -0.62786  -0.61799  -0.59424
 Alpha  occ. eigenvalues --   -0.57915  -0.55007  -0.53324  -0.48633  -0.47631
 Alpha  occ. eigenvalues --   -0.46995  -0.46522  -0.44608  -0.43412  -0.43190
 Alpha  occ. eigenvalues --   -0.42475  -0.41084  -0.40620  -0.40037  -0.39524
 Alpha  occ. eigenvalues --   -0.37352  -0.37010  -0.36147  -0.35864  -0.34209
 Alpha  occ. eigenvalues --   -0.33985  -0.29392  -0.27609  -0.25714  -0.24132
 Alpha  occ. eigenvalues --   -0.23713  -0.23066  -0.20757  -0.16120
 Alpha virt. eigenvalues --   -0.02637  -0.01243  -0.00282   0.00617   0.00794
 Alpha virt. eigenvalues --    0.01063   0.01947   0.02097   0.02166   0.03406
 Alpha virt. eigenvalues --    0.03608   0.04162   0.04565   0.05017   0.05657

  Beta  occ. eigenvalues --  -19.06787 -19.06737 -14.35673 -10.21776 -10.21542
  Beta  occ. eigenvalues --  -10.20682 -10.20328 -10.17586 -10.17560 -10.17268
  Beta  occ. eigenvalues --  -10.17133 -10.17040 -10.17034 -10.16675 -10.16154
  Beta  occ. eigenvalues --  -10.16072 -10.15844  -0.98428  -0.98127  -0.97754
  Beta  occ. eigenvalues --   -0.84417  -0.82290  -0.78963  -0.74547  -0.73837
  Beta  occ. eigenvalues --   -0.71408  -0.67022  -0.62730  -0.61533  -0.59380
  Beta  occ. eigenvalues --   -0.57584  -0.54901  -0.53153  -0.48581  -0.47570
  Beta  occ. eigenvalues --   -0.46781  -0.46142  -0.44379  -0.43308  -0.43102
  Beta  occ. eigenvalues --   -0.42409  -0.40963  -0.40019  -0.39380  -0.38249
  Beta  occ. eigenvalues --   -0.36942  -0.36104  -0.35636  -0.34275  -0.34084
  Beta  occ. eigenvalues --   -0.33800  -0.28931  -0.25165  -0.24513  -0.23510
  Beta  occ. eigenvalues --   -0.23158  -0.22880  -0.20459
  Beta virt. eigenvalues --   -0.08931  -0.02498  -0.00270  -0.00084   0.00643
  Beta virt. eigenvalues --    0.00811   0.01104   0.02042   0.02134   0.02892
  Beta virt. eigenvalues --    0.03472   0.04201   0.04285   0.04628   0.05300

 Mulliken charges and spin densities:
               1          2
     1  C   -1.032900   0.055919
     2  C    1.085070   0.099344
     3  C   -0.476617   0.009377
     4  C   -0.457727   0.136195
     5  C    0.015370   0.076118
     6  C   -0.005968   0.109801
     7  O   -0.477160   0.261008
     8  O   -0.524354   0.243865
     9  C    0.362552   0.027011
    10  C    1.255427  -0.045980
    11  C   -0.204147   0.019205
    12  C    0.165308  -0.009419
    13  N   -0.122263   0.002754
    14  C   -1.029001   0.038120
    15  C   -0.528907   0.002288
    16  C   -0.259513   0.000596
    17  C   -0.589194  -0.002701
    18  H    0.191686  -0.006713
    19  H    0.186113  -0.006466
    20  H    0.189195  -0.007457
    21  H    0.206574  -0.001257
    22  H    0.343186  -0.000048
    23  H    0.163656  -0.001506
    24  H    0.183636  -0.000055
    25  H    0.181133   0.000054
    26  H    0.178847  -0.000051
 Sum of Mulliken charges =  -1.00000   1.00000

 Dipole moment (field-independent basis, Debye):
    X=             18.5931    Y=              9.7433    Z=              4.7495  Tot=             21.5219
 Quadrupole moment (field-independent basis, Debye-Ang):
   XX=           -149.4953   YY=           -162.9865   ZZ=           -109.2200
   XY=            -19.6835   XZ=            -11.0543   YZ=             -6.8483

  Exact polarizability: 321.327 -53.415 343.060 -26.627  58.240 200.205
 Approx polarizability: 342.429 -43.913 394.030 -12.400  65.540 227.895

                      1                      2                      3
                      A                      A                      A
 Frequencies --     35.7415                71.0145                73.1463
 Red. masses --      7.0292                 4.4508                 5.8226
 Frc consts  --      0.0053                 0.0132                 0.0184
 IR Inten    --      0.5837                 3.9479                 1.2047

                      4                      5                      6
                      A                      A                      A
 Frequencies --    124.4703               186.5539               209.6883
 Red. masses --      9.3571                 5.5950                 6.1124
 Frc consts  --      0.0854                 0.1147                 0.1583
 IR Inten    --     19.4073                 0.9579                 8.2053

                      7                      8                      9
                      A                      A                      A
 Frequencies --    221.5949               268.9261               324.9797
 Red. masses --      4.1340                 7.6792                 6.5100
 Frc consts  --      0.1196                 0.3272                 0.4051
 IR Inten    --     12.6884                 5.8808                 2.1352

                     10                     11                     12
                      A                      A                      A
 Frequencies --    350.0746               413.3993               414.5158
 Red. masses --      5.3378                 1.6806                 8.4259
 Frc consts  --      0.3854                 0.1692                 0.8530
 IR Inten    --     11.5050               103.0983                30.3527

                     13                     14                     15
                      A                      A                      A
 Frequencies --    432.1459               442.5246               481.3795
 Red. masses --      2.5350                 2.6972                 8.0242
 Frc consts  --      0.2789                 0.3112                 1.0955
 IR Inten    --      0.4684                30.3764                 5.0558

                     16                     17                     18
                      A                      A                      A
 Frequencies --    492.8050               548.1492               563.8321
 Red. masses --      3.7716                 5.4157                 4.6289
 Frc consts  --      0.5397                 0.9587                 0.8670
 IR Inten    --      4.0499                 4.0151                 3.0889

                     19                     20                     21
                      A                      A                      A
 Frequencies --    587.6429               619.0878               634.4353
 Red. masses --      3.1426                 3.9676                 4.5464
 Frc consts  --      0.6394                 0.8959                 1.0782
 IR Inten    --     13.1609                 8.9964                 5.7643

                     22                     23                     24
                      A                      A                      A
 Frequencies --    657.3248               681.2055               746.8761
 Red. masses --      3.0978                 5.9734                 1.3212
 Frc consts  --      0.7886                 1.6332                 0.4342
 IR Inten    --      1.0277                 5.7750               131.3150

                     25                     26                     27
                      A                      A                      A
 Frequencies --    757.7420               770.2914               776.3237
 Red. masses --      3.3009                 3.4841                 4.7532
 Frc consts  --      1.1167                 1.2180                 1.6878
 IR Inten    --      4.3343                 8.2625                 5.9039

                     28                     29                     30
                      A                      A                      A
 Frequencies --    809.4072               825.2216               835.5024
 Red. masses --      2.2033                 2.6140                 2.1346
 Frc consts  --      0.8505                 1.0488                 0.8779
 IR Inten    --     96.4515                39.0327                29.3139

                     31                     32                     33
                      A                      A                      A
 Frequencies --    853.6581               859.3907               890.1535
 Red. masses --      1.5720                 5.5294                 5.0515
 Frc consts  --      0.6749                 2.4061                 2.3583
 IR Inten    --      1.4835                40.6798                 9.5769

                     34                     35                     36
                      A                      A                      A
 Frequencies --    893.2081               943.1307               961.8251
 Red. masses --      1.6443                 1.3731                 1.2930
 Frc consts  --      0.7729                 0.7196                 0.7048
 IR Inten    --     51.2777                 2.4642                 0.5351

                     37                     38                     39
                      A                      A                      A
 Frequencies --    975.4827               983.2923              1028.5592
 Red. masses --      1.2627                 3.1395                 2.1571
 Frc consts  --      0.7080                 1.7885                 1.3446
 IR Inten    --      0.1310                77.8163                31.8935

                     40                     41                     42
                      A                      A                      A
 Frequencies --   1084.4220              1108.1279              1118.4050
 Red. masses --      2.7652                 1.5384                 1.7303
 Frc consts  --      1.9159                 1.1130                 1.2752
 IR Inten    --     42.4864                74.4314                 3.5748

                     43                     44                     45
                      A                      A                      A
 Frequencies --   1149.5406              1168.9277              1211.2170
 Red. masses --      1.4690                 1.1476                 2.3025
 Frc consts  --      1.1437                 0.9239                 1.9902
 IR Inten    --      4.7716                 1.7818                23.9631

                     46                     47                     48
                      A                      A                      A
 Frequencies --   1249.0904              1256.1292              1264.5440
 Red. masses --      1.5852                 2.3196                 2.0744
 Frc consts  --      1.4572                 2.1564                 1.9544
 IR Inten    --      6.1411                 3.3004                30.8714

                     49                     50                     51
                      A                      A                      A
 Frequencies --   1314.1207              1341.0439              1354.0294
 Red. masses --      2.4795                 2.6311                 2.3195
 Frc consts  --      2.5228                 2.7878                 2.5055
 IR Inten    --     53.0241                 4.1104                53.1880

                     52                     53                     54
                      A                      A                      A
 Frequencies --   1368.1650              1426.1817              1445.8589
 Red. masses --      6.0660                 3.8063                 2.7703
 Frc consts  --      6.6901                 4.5614                 3.4122
 IR Inten    --     59.0788               335.6062                19.6201

                     55                     56                     57
                      A                      A                      A
 Frequencies --   1469.2369              1476.1074              1502.1177
 Red. masses --      8.4261                 2.8801                 5.1152
 Frc consts  --     10.7167                 3.6974                 6.8002
 IR Inten    --      3.0525                57.6092               919.8092

                     58                     59                     60
                      A                      A                      A
 Frequencies --   1505.7376              1515.8803              1566.8248
 Red. masses --      4.3828                 2.9569                 5.6997
 Frc consts  --      5.8546                 4.0033                 8.2441
 IR Inten    --    309.0598                29.4797                32.3295

                     61                     62                     63
                      A                      A                      A
 Frequencies --   1603.2706              1634.3850              1648.8122
 Red. masses --      5.5882                 6.8384                 6.0860
 Frc consts  --      8.4632                10.7625                 9.7483
 IR Inten    --      1.0373                66.2698                 6.7857

                     64                     65                     66
                      A                      A                      A
 Frequencies --   3142.4045              3150.4590              3160.2422
 Red. masses --      1.0858                 1.0898                 1.0858
 Frc consts  --      6.3169                 6.3728                 6.3891
 IR Inten    --     33.2230                32.0198                 2.3613

                     67                     68                     69
                      A                      A                      A
 Frequencies --   3162.1521              3170.9847              3183.5006
 Red. masses --      1.0952                 1.0896                 1.0953
 Frc consts  --      6.4524                 6.4552                 6.5404
 IR Inten    --     36.4830                24.6889                41.7041

                     70                     71                     72
                      A                      A                      A
 Frequencies --   3195.2799              3247.5915              3654.6503
 Red. masses --      1.0939                 1.0970                 1.0811
 Frc consts  --      6.5804                 6.8167                 8.5074
 IR Inten    --     16.7778                 0.1492               176.9372

 - Thermochemistry -
 -------------------
 Temperature   298.150 Kelvin.  Pressure   1.00000 Atm.
 Atom     1 has atomic number  6 and mass  12.00000

 Molecular mass:   223.06333 amu.
 Principal axes and moments of inertia in atomic units:
                           1         2         3
     Eigenvalues --  1686.559086225.428507166.56662
           X            0.81661   0.55725   0.15044
           Y           -0.47331   0.79565  -0.37804
           Z           -0.33036   0.23751   0.91348
 This molecule is an asymmetric top.
 Rotational symmetry number  1.
 Warning -- assumption of classical behavior for rotation
           may cause significant error
 Rotational temperatures (Kelvin)      0.05136     0.01391     0.01209
 Rotational constants (GHZ):           1.07007     0.28990     0.25183
 Zero-point vibrational energy     505985.3 (Joules/Mol)
                                  120.93340 (Kcal/Mol)
 Warning -- explicit consideration of  20 degrees of freedom as
           vibrations may cause significant error
 Vibrational temperatures:     51.42   102.17   105.24   179.08   268.41
          (Kelvin)            301.69   318.83   386.92   467.57   503.68
                              594.79   596.40   621.76   636.69   692.60
                              709.04   788.66   811.23   845.49   890.73
                              912.81   945.74   980.10  1074.59  1090.22
                             1108.28  1116.96  1164.56  1187.31  1202.10
                             1228.22  1236.47  1280.73  1285.13  1356.95
                             1383.85  1403.50  1414.74  1479.87  1560.24
                             1594.35  1609.14  1653.93  1681.83  1742.67
                             1797.16  1807.29  1819.40  1890.73  1929.46
                             1948.15  1968.48  2051.96  2080.27  2113.90
                             2123.79  2161.21  2166.42  2181.01  2254.31
                             2306.75  2351.52  2372.27  4521.22  4532.81
                             4546.88  4549.63  4562.34  4580.35  4597.30
                             4672.56  5258.23

 Zero-point correction=                           0.192720 (Hartree/Particle)
 Thermal correction to Energy=                    0.205516
 Thermal correction to Enthalpy=                  0.206460
 Thermal correction to Gibbs Free Energy=         0.152107
 Sum of electronic and zero-point Energies=           -744.250787
 Sum of electronic and thermal Energies=              -744.237991
 Sum of electronic and thermal Enthalpies=            -744.237047
 Sum of electronic and thermal Free Energies=         -744.291400

                     E (Thermal)             CV                S
                      KCal/Mol        Cal/Mol-Kelvin    Cal/Mol-Kelvin
 Total                  128.963             51.635            114.395
 Electronic               0.000              0.000              1.377
 Translational            0.889              2.981             42.109
 Rotational               0.889              2.981             32.687
 Vibrational            127.186             45.673             38.222
 Vibration     1          0.594              1.982              5.482
 Vibration     2          0.598              1.968              4.125
 Vibration     3          0.599              1.967              4.067
 Vibration     4          0.610              1.929              3.030
 Vibration     5          0.632              1.858              2.262
 Vibration     6          0.642              1.826              2.046
 Vibration     7          0.648              1.808              1.946
 Vibration     8          0.673              1.730              1.603
 Vibration     9          0.709              1.626              1.285
 Vibration    10          0.727              1.575              1.166
 Vibration    11          0.777              1.441              0.915
 Vibration    12          0.778              1.439              0.911
 Vibration    13          0.793              1.400              0.852
 Vibration    14          0.802              1.377              0.819
 Vibration    15          0.838              1.291              0.706
 Vibration    16          0.849              1.266              0.676
 Vibration    17          0.903              1.144              0.548
 Vibration    18          0.920              1.110              0.516
 Vibration    19          0.945              1.058              0.471
 Vibration    20          0.979              0.992              0.418

 Optimization completed.
    -- Stationary point found.
 Normal termination of Gaussian 16 at Sat Feb 10 12:37:47 2024.
