 Gaussian 16, Revision A.03,
 Gaussian 16:  ES64L-G16RevA.03 25-Dec-2016

 ----------------------------------------------------------------------
 #P UB3LYP/6-311++G(d,p) nosym opt freq SCRF=(PCM,Solvent=n,n-DiMethylF
 ormamide)
 ----------------------------------------------------------------------

 --------
 Oxidized
 --------
 Symbolic Z-matrix:
 Charge =  0 Multiplicity = 1

 SCF Done:  E(UB3LYP) =  -1502.67849776     A.U. after   17 cycles
 SCF Done:  E(UB3LYP) =  -1502.67880496     A.U. after   13 cycles
 SCF Done:  E(UB3LYP) =  -1502.67886876     A.U. after   13 cycles
 SCF Done:  E(UB3LYP) =  -1502.67890771     A.U. after   12 cycles
 SCF Done:  E(UB3LYP) =  -1502.67891600     A.U. after   11 cycles
 SCF Done:  E(UB3LYP) =  -1502.67891983     A.U. after   11 cycles
 SCF Done:  E(UB3LYP) =  -1502.67892196     A.U. after   10 cycles
 SCF Done:  E(UB3LYP) =  -1502.67892252     A.U. after   10 cycles
 SCF Done:  E(UB3LYP) =  -1502.67892295     A.U. after    9 cycles
 SCF Done:  E(UB3LYP) =  -1502.67892319     A.U. after    8 cycles
 SCF Done:  E(UB3LYP) =  -1502.67892332     A.U. after    9 cycles
 SCF Done:  E(UB3LYP) =  -1502.67892339     A.U. after    9 cycles
 Optimization completed.
    -- Stationary point found.
 Normal termination of Gaussian 16 at Sat Feb 10 23:11:39 2024.

 ----------------------------------------------------------------------
 #P Geom=AllCheck Guess=TCheck SCRF=Check GenChk UB3LYP/6-311++G(d,p) F
 req
 ----------------------------------------------------------------------

 Structure from the checkpoint file:  "195.chk"
 --------
 Oxidized
 --------
 Charge =  0 Multiplicity = 1

                          Input orientation:
 ---------------------------------------------------------------------
 Center     Atomic      Atomic             Coordinates (Angstroms)
 Number     Number       Type             X           Y           Z
 ---------------------------------------------------------------------
      1          6           0        4.823591   -3.022215    0.280215
      2          6           0        5.731140   -2.205057   -0.384849
      3          6           0        5.298408   -1.022376   -0.990545
      4          6           0        3.473599   -2.663844    0.345404
      5          6           0        3.037305   -1.471865   -0.265260
      6          6           0        3.957992   -0.657157   -0.931354
      7          6           0        2.520931   -3.541614    1.057052
      8          6           0        1.107023   -3.148797    1.108708
      9          6           0        0.664780   -1.946233    0.493163
     10          6           0        1.615266   -1.072137   -0.211705
     11          6           0        0.193827   -3.980409    1.781538
     12          6           0       -1.165540   -3.586165    1.820361
     13          6           0       -0.690952   -1.583939    0.556580
     14          6           0       -1.600338   -2.421909    1.230620
     15          8           0        2.909569   -4.589711    1.599941
     16          8           0        1.229217   -0.022696   -0.749040
     17          8           0        0.556178   -5.110920    2.388317
     18          1           0        5.146562   -3.940407    0.753275
     19          1           0        6.776011   -2.487323   -0.432681
     20          1           0        6.007827   -0.387686   -1.507825
     21          1           0        1.536193   -5.208466    2.244660
     22          8           0       -1.180994   -0.465666    0.003902
     23          1           0       -2.642978   -2.136529    1.278050
     24          1           0       -0.419444   -0.000518   -0.423539
     25          1           0        3.610506    0.256063   -1.396660
     26         16           0       -2.393702   -4.633518    2.614848
     27          8           0       -3.651586   -3.898671    2.625570
     28          8           0       -2.357809   -5.978148    2.050132
     29          8           0       -1.844773   -4.660829    4.137659
     30          6           0       -1.514654   -5.936950    4.769025
     31          1           0       -0.779438   -6.469639    4.170926
     32          1           0       -2.417827   -6.528319    4.909371
     33          1           0       -1.094217   -5.650740    5.729789
 ---------------------------------------------------------------------

 SCF Done:  E(UB3LYP) =  -1502.67892339     A.U. after    2 cycles

 Alpha  occ. eigenvalues --  -89.10726 -19.19271 -19.17853 -19.17334 -19.15089
 Alpha  occ. eigenvalues --  -19.15077 -19.15052 -19.14937 -10.30101 -10.30047
 Alpha  occ. eigenvalues --  -10.29219 -10.28196 -10.25140 -10.23898 -10.22828
 Alpha  occ. eigenvalues --  -10.22807 -10.22752 -10.22008 -10.21954 -10.20665
 Alpha  occ. eigenvalues --  -10.20660 -10.20595 -10.20548  -8.16727  -6.13100
 Alpha  occ. eigenvalues --   -6.12929  -6.12813  -1.17438  -1.10985  -1.10259
 Alpha  occ. eigenvalues --   -1.07367  -1.07162  -1.06315  -1.04385  -0.91184
 Alpha  occ. eigenvalues --   -0.89522  -0.84272  -0.79766  -0.79153  -0.78424
 Alpha  occ. eigenvalues --   -0.75904  -0.71981  -0.69648  -0.67673  -0.65323
 Alpha  occ. eigenvalues --   -0.64031  -0.61345  -0.58447  -0.58165  -0.57408
 Alpha  occ. eigenvalues --   -0.55900  -0.54740  -0.53002  -0.51461  -0.51137
 Alpha  occ. eigenvalues --   -0.50385  -0.48927  -0.48526  -0.47849  -0.47101
 Alpha  occ. eigenvalues --   -0.46644  -0.46217  -0.46086  -0.45809  -0.44969
 Alpha  occ. eigenvalues --   -0.44849  -0.44124  -0.41944  -0.41641  -0.41247
 Alpha  occ. eigenvalues --   -0.40005  -0.39288  -0.38746  -0.37783  -0.37617
 Alpha  occ. eigenvalues --   -0.36428  -0.35535  -0.34705  -0.34327  -0.32991
 Alpha  occ. eigenvalues --   -0.31021  -0.30980  -0.29392  -0.28978  -0.28767
 Alpha  occ. eigenvalues --   -0.24970
 Alpha virt. eigenvalues --   -0.13804  -0.08441  -0.06065  -0.03093  -0.00906
 Alpha virt. eigenvalues --   -0.00246  -0.00025   0.00603   0.00854   0.01473
 Alpha virt. eigenvalues --    0.02358   0.02514   0.02776   0.03043   0.03509

  Beta  occ. eigenvalues --  -89.10726 -19.19271 -19.17853 -19.17334 -19.15089
  Beta  occ. eigenvalues --  -19.15077 -19.15052 -19.14937 -10.30101 -10.30047
  Beta  occ. eigenvalues --  -10.29219 -10.28196 -10.25140 -10.23898 -10.22828
  Beta  occ. eigenvalues --  -10.22807 -10.22752 -10.22008 -10.21954 -10.20665
  Beta  occ. eigenvalues --  -10.20660 -10.20595 -10.20548  -8.16727  -6.13100
  Beta  occ. eigenvalues --   -6.12929  -6.12813  -1.17438  -1.10985  -1.10259
  Beta  occ. eigenvalues --   -1.07367  -1.07162  -1.06315  -1.04385  -0.91184
  Beta  occ. eigenvalues --   -0.89522  -0.84272  -0.79766  -0.79153  -0.78424
  Beta  occ. eigenvalues --   -0.75904  -0.71981  -0.69648  -0.67673  -0.65323
  Beta  occ. eigenvalues --   -0.64031  -0.61345  -0.58447  -0.58165  -0.57408
  Beta  occ. eigenvalues --   -0.55900  -0.54740  -0.53002  -0.51461  -0.51137
  Beta  occ. eigenvalues --   -0.50385  -0.48927  -0.48526  -0.47849  -0.47101
  Beta  occ. eigenvalues --   -0.46644  -0.46217  -0.46086  -0.45809  -0.44969
  Beta  occ. eigenvalues --   -0.44849  -0.44124  -0.41944  -0.41641  -0.41247
  Beta  occ. eigenvalues --   -0.40005  -0.39288  -0.38746  -0.37783  -0.37617
  Beta  occ. eigenvalues --   -0.36428  -0.35535  -0.34705  -0.34327  -0.32991
  Beta  occ. eigenvalues --   -0.31021  -0.30980  -0.29392  -0.28978  -0.28767
  Beta  occ. eigenvalues --   -0.24970
  Beta virt. eigenvalues --   -0.13804  -0.08441  -0.06065  -0.03093  -0.00906
  Beta virt. eigenvalues --   -0.00246  -0.00025   0.00603   0.00854   0.01473
  Beta virt. eigenvalues --    0.02358   0.02514   0.02776   0.03043   0.03509

 Mulliken charges and spin densities:
               1          2
     1  C   -0.003309  -0.000000
     2  C   -0.372222   0.000000
     3  C   -0.446625  -0.000000
     4  C    0.418104   0.000000
     5  C    0.103268   0.000000
     6  C    0.041596   0.000000
     7  C   -0.494402  -0.000000
     8  C    0.581265   0.000000
     9  C    0.754498  -0.000000
    10  C   -0.352300   0.000000
    11  C   -0.495699  -0.000000
    12  C   -0.546276   0.000000
    13  C   -0.363750  -0.000000
    14  C   -0.147904   0.000000
    15  O   -0.302619  -0.000000
    16  O   -0.309121  -0.000000
    17  O   -0.316526   0.000000
    18  H    0.190666  -0.000000
    19  H    0.217289   0.000000
    20  H    0.213919  -0.000000
    21  H    0.420965  -0.000000
    22  O   -0.314030   0.000000
    23  H    0.271134   0.000000
    24  H    0.358718  -0.000000
    25  H    0.197522  -0.000000
    26  S    0.987780  -0.000000
    27  O   -0.139828   0.000000
    28  O   -0.230048   0.000000
    29  O   -0.180981   0.000000
    30  C   -0.329275  -0.000000
    31  H    0.204109   0.000000
    32  H    0.206513   0.000000
    33  H    0.177567   0.000000
 Sum of Mulliken charges =  -0.00000   0.00000

 Dipole moment (field-independent basis, Debye):
    X=              9.3975    Y=              1.6270    Z=             -0.4108  Tot=              9.5462
 Quadrupole moment (field-independent basis, Debye-Ang):
   XX=           -125.2439   YY=           -155.3020   ZZ=           -128.8487
   XY=            -23.5986   XZ=              1.7736   YZ=             -5.8050

  Exact polarizability: 452.083  16.053 314.848 -68.833 -98.369 231.479
 Approx polarizability: 500.204 -14.503 394.435 -55.143-113.704 267.515

                      1                      2                      3
                      A                      A                      A
 Frequencies --     31.7111                42.9108                62.0388
 Red. masses --      7.5512                 6.0696                 2.2937
 Frc consts  --      0.0045                 0.0066                 0.0052
 IR Inten    --      0.6515                 2.1672                 9.3413

                      4                      5                      6
                      A                      A                      A
 Frequencies --     76.2163                90.2775               104.9068
 Red. masses --      6.0149                 5.1242                 2.6169
 Frc consts  --      0.0206                 0.0246                 0.0170
 IR Inten    --      3.7032                 0.1004                 0.8265

                      7                      8                      9
                      A                      A                      A
 Frequencies --    127.4171               132.7701               157.5053
 Red. masses --      2.2233                 5.9178                 7.6712
 Frc consts  --      0.0213                 0.0615                 0.1121
 IR Inten    --      2.3198                 0.1618                 1.9828

                     10                     11                     12
                      A                      A                      A
 Frequencies --    176.5346               203.0635               229.1471
 Red. masses --      8.5419                 7.8989                 8.0466
 Frc consts  --      0.1568                 0.1919                 0.2489
 IR Inten    --      1.0813                 1.4953                 0.9518

                     13                     14                     15
                      A                      A                      A
 Frequencies --    232.1822               247.5303               279.8935
 Red. masses --      7.4893                 5.1954                 6.6343
 Frc consts  --      0.2379                 0.1876                 0.3062
 IR Inten    --      4.0621                 9.0466                 7.4815

                     16                     17                     18
                      A                      A                      A
 Frequencies --    292.3994               325.6072               348.5827
 Red. masses --      7.5852                 6.5729                 6.2809
 Frc consts  --      0.3821                 0.4106                 0.4497
 IR Inten    --      2.1883                 2.0546                13.4191

                     19                     20                     21
                      A                      A                      A
 Frequencies --    388.5891               407.0614               425.1021
 Red. masses --      9.7786                11.2274                 4.3192
 Frc consts  --      0.8700                 1.0961                 0.4599
 IR Inten    --      7.7847                 5.2595                 2.8393

                     22                     23                     24
                      A                      A                      A
 Frequencies --    425.1660               432.1775               449.9392
 Red. masses --      5.1797                 8.8723                12.7594
 Frc consts  --      0.5517                 0.9764                 1.5219
 IR Inten    --      8.8077                55.2259                 6.4662

                     25                     26                     27
                      A                      A                      A
 Frequencies --    465.6899               481.6451               491.0892
 Red. masses --      6.0549                 9.5923                 8.5213
 Frc consts  --      0.7737                 1.3111                 1.2108
 IR Inten    --     25.0443               103.5206                 8.4568

                     28                     29                     30
                      A                      A                      A
 Frequencies --    512.5194               526.4878               552.3384
 Red. masses --      5.4252                 8.2271                 8.3531
 Frc consts  --      0.8396                 1.3436                 1.5014
 IR Inten    --     21.4003                36.1818                 1.0613

                     31                     32                     33
                      A                      A                      A
 Frequencies --    592.0300               631.3033               659.8404
 Red. masses --     10.9016                 5.3704                 6.5775
 Frc consts  --      2.2513                 1.2610                 1.6873
 IR Inten    --    209.7344                23.3614                 6.2178

                     34                     35                     36
                      A                      A                      A
 Frequencies --    675.7426               685.9640               694.5242
 Red. masses --      6.2749                 6.9257                 8.3253
 Frc consts  --      1.6882                 1.9201                 2.3661
 IR Inten    --     64.2007                84.9973               283.2423

                     37                     38                     39
                      A                      A                      A
 Frequencies --    720.4590               738.1338               742.5996
 Red. masses --      4.2941                 6.0546                 2.2836
 Frc consts  --      1.3132                 1.9436                 0.7420
 IR Inten    --     10.9887                10.3948                39.4951

                     40                     41                     42
                      A                      A                      A
 Frequencies --    762.4246               788.3477               799.5786
 Red. masses --      1.1700                 3.9456                 1.2132
 Frc consts  --      0.4007                 1.4448                 0.4570
 IR Inten    --    220.6742                29.4680               156.0224

                     43                     44                     45
                      A                      A                      A
 Frequencies --    802.8077               818.2470               908.9870
 Red. masses --      7.4032                 2.1955                 7.8777
 Frc consts  --      2.8112                 0.8661                 3.8350
 IR Inten    --     10.3872                 4.2535               101.3603

                     46                     47                     48
                      A                      A                      A
 Frequencies --    914.4832               919.7177               925.9302
 Red. masses --      1.3863                 1.4283                 8.8095
 Frc consts  --      0.6830                 0.7118                 4.4500
 IR Inten    --      0.5939                16.2062               160.9849

                     49                     50                     51
                      A                      A                      A
 Frequencies --    964.6582              1004.9511              1006.1084
 Red. masses --     11.3819                 1.3877                 6.3341
 Frc consts  --      6.2404                 0.8257                 3.7777
 IR Inten    --    402.6569                 1.6531               103.5588

                     52                     53                     54
                      A                      A                      A
 Frequencies --   1027.0373              1050.9804              1095.6915
 Red. masses --      1.3404                 2.5343                 4.9325
 Frc consts  --      0.8330                 1.6493                 3.4889
 IR Inten    --      0.0006                43.2294               567.2961

                     55                     56                     57
                      A                      A                      A
 Frequencies --   1115.1772              1122.0061              1162.7702
 Red. masses --      2.3413                 4.9407                 1.2330
 Frc consts  --      1.7155                 3.6646                 0.9822
 IR Inten    --      7.3491               103.4106                 0.5353

                     58                     59                     60
                      A                      A                      A
 Frequencies --   1175.7056              1178.8857              1182.9665
 Red. masses --      1.8037                 1.3206                 1.1404
 Frc consts  --      1.4690                 1.0814                 0.9403
 IR Inten    --     99.9206                12.3802                45.9570

                     61                     62                     63
                      A                      A                      A
 Frequencies --   1229.9473              1240.3937              1279.1602
 Red. masses --      2.1483                 3.0755                14.2935
 Frc consts  --      1.9148                 2.7879                13.7797
 IR Inten    --    109.5401               833.0022               525.8090

                     64                     65                     66
                      A                      A                      A
 Frequencies --   1282.9158              1308.9769              1337.5125
 Red. masses --      2.2149                 5.1088                 2.8436
 Frc consts  --      2.1479                 5.1574                 2.9972
 IR Inten    --    127.4050                88.9129               287.4980

                     67                     68                     69
                      A                      A                      A
 Frequencies --   1343.7621              1367.7145              1386.3774
 Red. masses --      3.4129                 6.2895                 2.5675
 Frc consts  --      3.6310                 6.9319                 2.9076
 IR Inten    --    510.4189               245.1735               342.0913

                     70                     71                     72
                      A                      A                      A
 Frequencies --   1409.8896              1441.4418              1460.1961
 Red. masses --      6.5512                 3.7598                 1.1237
 Frc consts  --      7.6726                 4.6027                 1.4117
 IR Inten    --     16.4969               652.5706                 7.5865

                     73                     74                     75
                      A                      A                      A
 Frequencies --   1477.2078              1483.1476              1485.3078
 Red. masses --      1.0536                 1.0528                 2.5089
 Frc consts  --      1.3545                 1.3645                 3.2611
 IR Inten    --      8.3687                19.8615                 1.1478

                     76                     77                     78
                      A                      A                      A
 Frequencies --   1499.8354              1506.5362              1592.5187
 Red. masses --      3.0712                 2.7833                 4.0994
 Frc consts  --      4.0704                 3.7219                 6.1255
 IR Inten    --    169.9042                 0.2665               138.8250

                     79                     80                     81
                      A                      A                      A
 Frequencies --   1608.8898              1609.4501              1622.1977
 Red. masses --      6.4779                 6.5124                 3.4202
 Frc consts  --      9.8795                 9.9391                 5.3028
 IR Inten    --     73.1475               545.0012                54.8311

                     82                     83                     84
                      A                      A                      A
 Frequencies --   1655.7036              1673.1067              3069.6287
 Red. masses --      8.4373                 8.5031                 1.0275
 Frc consts  --     13.6276                14.0240                 5.7042
 IR Inten    --    474.7506                18.0735                43.4061

                     85                     86                     87
                      A                      A                      A
 Frequencies --   3163.1429              3177.3706              3183.3635
 Red. masses --      1.1087                 1.1089                 1.0878
 Frc consts  --      6.5360                 6.5958                 6.4948
 IR Inten    --     14.4866                 5.6656                 6.4649

                     88                     89                     90
                      A                      A                      A
 Frequencies --   3188.3126              3195.4618              3208.3982
 Red. masses --      1.0697                 1.0918                 1.0928
 Frc consts  --      6.4068                 6.5684                 6.6278
 IR Inten    --    520.9851                 4.9555                 0.9698

                     91                     92                     93
                      A                      A                      A
 Frequencies --   3211.0328              3215.2052              3300.8022
 Red. masses --      1.0954                 1.0916                 1.0680
 Frc consts  --      6.6547                 6.6488                 6.8559
 IR Inten    --     16.8677                23.5694               389.2478

 - Thermochemistry -
 -------------------
 Temperature   298.150 Kelvin.  Pressure   1.00000 Atm.
 Atom     1 has atomic number  6 and mass  12.00000

 Molecular mass:   334.01472 amu.
 Principal axes and moments of inertia in atomic units:
                           1         2         3
     Eigenvalues --  3406.29819********************
           X            0.79747  -0.58031   0.16517
           Y            0.41569   0.72686   0.54670
           Z           -0.43731  -0.36732   0.82088
 This molecule is an asymmetric top.
 Rotational symmetry number  1.
 Warning -- assumption of classical behavior for rotation
           may cause significant error
 Rotational temperatures (Kelvin)      0.02543     0.00716     0.00577
 Rotational constants (GHZ):           0.52982     0.14909     0.12030
 Zero-point vibrational energy     602926.7 (Joules/Mol)
                                  144.10293 (Kcal/Mol)
 Warning -- explicit consideration of  31 degrees of freedom as
           vibrations may cause significant error
 Vibrational temperatures:     45.63    61.74    89.26   109.66   129.89
          (Kelvin)            150.94   183.32   191.03   226.62   253.99
                              292.16   329.69   334.06   356.14   402.70
                              420.70   468.48   501.53   559.09   585.67
                              611.63   611.72   621.81   647.36   670.02
                              692.98   706.57   737.40   757.50   794.69
                              851.80   908.30   949.36   972.24   986.95
                              999.27  1036.58  1062.01  1068.44  1096.96
                             1134.26  1150.42  1155.06  1177.27  1307.83
                             1315.74  1323.27  1332.21  1387.93  1445.90
                             1447.57  1477.68  1512.13  1576.46  1604.49
                             1614.32  1672.97  1691.58  1696.15  1702.02
                             1769.62  1784.65  1840.43  1845.83  1883.33
                             1924.38  1933.37  1967.84  1994.69  2028.52
                             2073.91  2100.90  2125.37  2133.92  2137.03
                             2157.93  2167.57  2291.28  2314.83  2315.64
                             2333.98  2382.19  2407.23  4416.51  4551.06
                             4571.53  4580.15  4587.27  4597.56  4616.17
                             4619.96  4625.96  4749.12

 Zero-point correction=                           0.229643 (Hartree/Particle)
 Thermal correction to Energy=                    0.248805
 Thermal correction to Enthalpy=                  0.249749
 Thermal correction to Gibbs Free Energy=         0.181694
 Sum of electronic and zero-point Energies=          -1502.449281
 Sum of electronic and thermal Energies=             -1502.430119
 Sum of electronic and thermal Enthalpies=           -1502.429175
 Sum of electronic and thermal Free Energies=        -1502.497229

                     E (Thermal)             CV                S
                      KCal/Mol        Cal/Mol-Kelvin    Cal/Mol-Kelvin
 Total                  156.127             73.951            143.233
 Electronic               0.000              0.000              0.000
 Translational            0.889              2.981             43.313
 Rotational               0.889              2.981             34.780
 Vibrational            154.350             67.989             65.141
 Vibration     1          0.594              1.983              5.719
 Vibration     2          0.595              1.980              5.120
 Vibration     3          0.597              1.972              4.391
 Vibration     4          0.599              1.965              3.986
 Vibration     5          0.602              1.956              3.654
 Vibration     6          0.605              1.945              3.361
 Vibration     7          0.611              1.926              2.985
 Vibration     8          0.613              1.921              2.906
 Vibration     9          0.621              1.894              2.580
 Vibration    10          0.628              1.871              2.365
 Vibration    11          0.639              1.836              2.105
 Vibration    12          0.652              1.797              1.886
 Vibration    13          0.653              1.792              1.862
 Vibration    14          0.661              1.767              1.748
 Vibration    15          0.680              1.711              1.534
 Vibration    16          0.688              1.688              1.460
 Vibration    17          0.710              1.624              1.282
 Vibration    18          0.726              1.578              1.173
 Vibration    19          0.757              1.495              1.006
 Vibration    20          0.772              1.455              0.937
 Vibration    21          0.787              1.416              0.875
 Vibration    22          0.787              1.415              0.875
 Vibration    23          0.793              1.400              0.852
 Vibration    24          0.809              1.361              0.796
 Vibration    25          0.823              1.326              0.750
 Vibration    26          0.838              1.291              0.706
 Vibration    27          0.847              1.270              0.681
 Vibration    28          0.868              1.222              0.628
 Vibration    29          0.881              1.191              0.595
 Vibration    30          0.908              1.135              0.539
 Vibration    31          0.950              1.049              0.464

                           ! Non-Optimized Parameters !
 Normal termination of Gaussian 16 at Sun Feb 11 00:32:06 2024.
