 Gaussian 16, Revision A.03,
 Gaussian 16:  ES64L-G16RevA.03 25-Dec-2016

 --------------------------------------
 #P UB3LYP/6-311++G(d,p) nosym opt freq
 --------------------------------------

 -------
 Radical
 -------
 Symbolic Z-matrix:
 Charge = -1 Multiplicity = 2

 SCF Done:  E(UB3LYP) =  -573.641379752     A.U. after   23 cycles
 SCF Done:  E(UB3LYP) =  -573.657169564     A.U. after   18 cycles
 SCF Done:  E(UB3LYP) =  -573.658136229     A.U. after   17 cycles
 SCF Done:  E(UB3LYP) =  -573.658797163     A.U. after   17 cycles
 SCF Done:  E(UB3LYP) =  -573.658816278     A.U. after   15 cycles
 SCF Done:  E(UB3LYP) =  -573.658766396     A.U. after   15 cycles
 SCF Done:  E(UB3LYP) =  -573.658819188     A.U. after   14 cycles
 SCF Done:  E(UB3LYP) =  -573.658820616     A.U. after   12 cycles
 SCF Done:  E(UB3LYP) =  -573.658820680     A.U. after   10 cycles
 SCF Done:  E(UB3LYP) =  -573.658821975     A.U. after   13 cycles
 SCF Done:  E(UB3LYP) =  -573.661257773     A.U. after   14 cycles
 SCF Done:  E(UB3LYP) =  -573.661264158     A.U. after   15 cycles
 SCF Done:  E(UB3LYP) =  -573.661265640     A.U. after   14 cycles
 SCF Done:  E(UB3LYP) =  -573.661267450     A.U. after   13 cycles
 SCF Done:  E(UB3LYP) =  -573.661267934     A.U. after   13 cycles
 SCF Done:  E(UB3LYP) =  -573.661268034     A.U. after   11 cycles
 SCF Done:  E(UB3LYP) =  -573.661268082     A.U. after   10 cycles
 SCF Done:  E(UB3LYP) =  -573.661268155     A.U. after   10 cycles
 SCF Done:  E(UB3LYP) =  -573.661268176     A.U. after   11 cycles
 Optimization completed.
    -- Stationary point found.
 Normal termination of Gaussian 16 at Sun Dec 17 22:23:14 2023.

 ----------------------------------------------------------------------
 #P Geom=AllCheck Guess=TCheck SCRF=Check GenChk UB3LYP/6-311++G(d,p) F
 req
 ----------------------------------------------------------------------

 Structure from the checkpoint file:  "058-rad.chk"
 -------
 Radical
 -------
 Charge = -1 Multiplicity = 2

                          Input orientation:
 ---------------------------------------------------------------------
 Center     Atomic      Atomic             Coordinates (Angstroms)
 Number     Number       Type             X           Y           Z
 ---------------------------------------------------------------------
      1          6           0       -0.509058    1.168230   -0.405430
      2          6           0       -1.412620    0.126087   -0.894014
      3          6           0       -1.251059   -1.208934   -0.678269
      4          6           0       -0.104377   -1.689615    0.096445
      5          6           0        0.785938   -0.680026    0.594134
      6          6           0        0.624304    0.688632    0.403375
      7          8           0       -0.712278    2.359842   -0.714941
      8          8           0        0.078801   -2.923221    0.312726
      9          6           0        1.582526    1.629358    1.024118
     10          6           0        2.949612    1.075714    1.457644
     11          8           0        1.353288    2.813450    1.229848
     12          1           0       -2.252432    0.495019   -1.478420
     13          1           0        3.413878    0.463451    0.680399
     14          1           0        2.848877    0.451493    2.351628
     15          1           0        3.590718    1.924318    1.697975
     16          6           0       -2.209439   -2.237430   -1.212850
     17          1           0        1.616148   -1.061764    1.177984
     18          1           0       -3.024779   -1.766367   -1.768483
     19          1           0       -2.630184   -2.835519   -0.397843
     20          1           0       -1.692565   -2.945998   -1.868466
 ---------------------------------------------------------------------

 SCF Done:  E(UB3LYP) =  -573.661268176     A.U. after    1 cycles

 Alpha  occ. eigenvalues --  -18.97031 -18.94600 -18.94219 -10.12564 -10.09555
 Alpha  occ. eigenvalues --  -10.08889 -10.05396 -10.05268 -10.04955 -10.04335
 Alpha  occ. eigenvalues --  -10.04205 -10.03667  -0.90321  -0.86842  -0.86559
 Alpha  occ. eigenvalues --   -0.70293  -0.65881  -0.61340  -0.57542  -0.55144
 Alpha  occ. eigenvalues --   -0.47586  -0.45515  -0.39008  -0.35905  -0.34608
 Alpha  occ. eigenvalues --   -0.32257  -0.31693  -0.30837  -0.30550  -0.29411
 Alpha  occ. eigenvalues --   -0.27454  -0.26927  -0.26720  -0.26180  -0.24349
 Alpha  occ. eigenvalues --   -0.24091  -0.23332  -0.22386  -0.15027  -0.13203
 Alpha  occ. eigenvalues --   -0.12924  -0.10945  -0.08980  -0.03301
 Alpha virt. eigenvalues --    0.07850   0.08838   0.09071   0.11505   0.11930
 Alpha virt. eigenvalues --    0.12493   0.12831   0.13378   0.14277   0.15157
 Alpha virt. eigenvalues --    0.15302   0.16748   0.17708   0.18282   0.18446

  Beta  occ. eigenvalues --  -18.96906 -18.93826 -18.93610 -10.12558 -10.09531
  Beta  occ. eigenvalues --  -10.08788 -10.05399 -10.05254 -10.04958 -10.04192
  Beta  occ. eigenvalues --  -10.03963 -10.03555  -0.90092  -0.85790  -0.85244
  Beta  occ. eigenvalues --   -0.69757  -0.65654  -0.61220  -0.57260  -0.54239
  Beta  occ. eigenvalues --   -0.47233  -0.45223  -0.38714  -0.35701  -0.34406
  Beta  occ. eigenvalues --   -0.32065  -0.31412  -0.30658  -0.30250  -0.29236
  Beta  occ. eigenvalues --   -0.27375  -0.26382  -0.26233  -0.25197  -0.24024
  Beta  occ. eigenvalues --   -0.23035  -0.22075  -0.20945  -0.12818  -0.12188
  Beta  occ. eigenvalues --   -0.11634  -0.10239  -0.08497
  Beta virt. eigenvalues --    0.03693   0.08836   0.09018   0.09157   0.11518
  Beta virt. eigenvalues --    0.11949   0.12615   0.12954   0.13392   0.15182
  Beta virt. eigenvalues --    0.15310   0.15412   0.16772   0.18306   0.18509

 Mulliken charges and spin densities:
               1          2
     1  C   -0.812039   0.003595
     2  C   -0.549279   0.071240
     3  C    1.343551   0.007112
     4  C   -1.021192   0.082518
     5  C   -0.766641   0.171873
     6  C    1.678043   0.108856
     7  O   -0.335111   0.223172
     8  O   -0.388830   0.281153
     9  C   -0.082200   0.011914
    10  C   -0.548545   0.002342
    11  O   -0.278147   0.045720
    12  H    0.122402  -0.007839
    13  H    0.132440  -0.000415
    14  H    0.144309   0.001274
    15  H    0.167059  -0.000533
    16  C   -0.377697   0.010196
    17  H    0.135148  -0.013372
    18  H    0.123163  -0.000464
    19  H    0.157038   0.001054
    20  H    0.156524   0.000609
 Sum of Mulliken charges =  -1.00000   1.00000

 Dipole moment (field-independent basis, Debye):
    X=              0.1226    Y=             -2.5380    Z=             -0.6927  Tot=              2.6336
 Quadrupole moment (field-independent basis, Debye-Ang):
   XX=            -75.4906   YY=           -120.9639   ZZ=            -76.7113
   XY=             -0.6330   XZ=             -2.7562   YZ=              0.2476

  Exact polarizability: 139.709  19.442 189.430  39.375   6.737 100.265
 Approx polarizability: 184.567   3.041 333.033  45.538  -6.865 147.012

                      1                      2                      3
                      A                      A                      A
 Frequencies --     37.0372                63.8360               127.0817
 Red. masses --      5.2662                 4.8947                 1.1678
 Frc consts  --      0.0043                 0.0118                 0.0111
 IR Inten    --      4.5324                 5.2705                 0.2634

                      4                      5                      6
                      A                      A                      A
 Frequencies --    146.0215               148.1839               183.1120
 Red. masses --      3.0924                 1.1589                 4.9281
 Frc consts  --      0.0388                 0.0150                 0.0974
 IR Inten    --      5.2747                 1.3163                 3.8670

                      7                      8                      9
                      A                      A                      A
 Frequencies --    199.4119               284.9584               315.8020
 Red. masses --      3.6004                 3.2920                 5.7557
 Frc consts  --      0.0844                 0.1575                 0.3382
 IR Inten    --      0.3969                 1.0977                 1.2817

                     10                     11                     12
                      A                      A                      A
 Frequencies --    338.9932               390.8439               404.2390
 Red. masses --      6.2924                 7.1290                 3.9589
 Frc consts  --      0.4260                 0.6416                 0.3811
 IR Inten    --      4.5520                 8.3435                 2.0994

                     13                     14                     15
                      A                      A                      A
 Frequencies --    430.3394               481.1175               536.6593
 Red. masses --      3.9394                 9.5621                 4.4819
 Frc consts  --      0.4298                 1.3041                 0.7605
 IR Inten    --      0.4994                 1.1437                10.0358

                     16                     17                     18
                      A                      A                      A
 Frequencies --    576.4177               641.2423               668.5047
 Red. masses --      2.9392                 4.0173                 4.7880
 Frc consts  --      0.5754                 0.9733                 1.2607
 IR Inten    --      5.0949                 4.5615                 7.5822

                     19                     20                     21
                      A                      A                      A
 Frequencies --    686.2725               712.1036               749.0396
 Red. masses --      3.5362                 6.0280                 3.2220
 Frc consts  --      0.9812                 1.8010                 1.0651
 IR Inten    --      1.6785                13.1931                 1.7413

                     22                     23                     24
                      A                      A                      A
 Frequencies --    841.9463               857.2417               893.4668
 Red. masses --      2.9740                 1.5761                 1.5761
 Frc consts  --      1.2421                 0.6824                 0.7413
 IR Inten    --      8.4858                 2.0841                34.5739

                     25                     26                     27
                      A                      A                      A
 Frequencies --    919.3453              1016.2014              1018.9944
 Red. masses --      3.8334                 1.5623                 2.0331
 Frc consts  --      1.9089                 0.9506                 1.2438
 IR Inten    --     65.4008                11.0753                56.4159

                     28                     29                     30
                      A                      A                      A
 Frequencies --   1027.2813              1052.4318              1150.6092
 Red. masses --      1.8781                 1.5118                 3.1985
 Frc consts  --      1.1678                 0.9866                 2.4949
 IR Inten    --      5.5057                 1.2825                36.1229

                     31                     32                     33
                      A                      A                      A
 Frequencies --   1174.8715              1241.5373              1251.8292
 Red. masses --      4.9116                 2.7402                 1.4375
 Frc consts  --      3.9944                 2.4886                 1.3273
 IR Inten    --     78.3082               145.8104                10.0354

                     34                     35                     36
                      A                      A                      A
 Frequencies --   1333.3498              1367.5140              1393.9796
 Red. masses --      2.5030                 1.3771                 1.4572
 Frc consts  --      2.6218                 1.5173                 1.6684
 IR Inten    --      1.9691                22.0119                16.6945

                     37                     38                     39
                      A                      A                      A
 Frequencies --   1416.3074              1461.8230              1464.9080
 Red. masses --      3.7913                 5.4441                 1.0473
 Frc consts  --      4.4807                 6.8543                 1.3241
 IR Inten    --    132.2651               235.2517                 5.0014

                     40                     41                     42
                      A                      A                      A
 Frequencies --   1473.9248              1479.7381              1483.2164
 Red. masses --      1.0643                 1.0568                 1.1610
 Frc consts  --      1.3622                 1.3634                 1.5048
 IR Inten    --     12.0253                 6.7595                17.0616

                     43                     44                     45
                      A                      A                      A
 Frequencies --   1531.3948              1560.9502              1642.6477
 Red. masses --      5.7926                 8.4224                 6.6313
 Frc consts  --      8.0039                12.0910                10.5424
 IR Inten    --    241.4744                60.0467                20.3492

                     46                     47                     48
                      A                      A                      A
 Frequencies --   1704.2882              3012.4964              3022.7850
 Red. masses --     10.4524                 1.0343                 1.0366
 Frc consts  --     17.8876                 5.5301                 5.5805
 IR Inten    --    458.9128                71.2165                18.3356

                     49                     50                     51
                      A                      A                      A
 Frequencies --   3057.7910              3083.3718              3084.5294
 Red. masses --      1.0986                 1.0979                 1.1028
 Frc consts  --      6.0521                 6.1498                 6.1821
 IR Inten    --     26.6355                20.7243                24.9218

                     52                     53                     54
                      A                      A                      A
 Frequencies --   3119.4006              3133.5409              3171.3198
 Red. masses --      1.1028                 1.0893                 1.0874
 Frc consts  --      6.3224                 6.3017                 6.4438
 IR Inten    --     26.0831                37.9407                11.5448

 - Thermochemistry -
 -------------------
 Temperature   298.150 Kelvin.  Pressure   1.00000 Atm.
 Atom     1 has atomic number  6 and mass  12.00000

 Molecular mass:   164.04734 amu.
 Principal axes and moments of inertia in atomic units:
                           1         2         3
     Eigenvalues --  1089.320772646.361893678.51660
           X            0.54626   0.64920  -0.52928
           Y            0.77944  -0.62536   0.03738
           Z            0.30672   0.43296   0.84762
 This molecule is an asymmetric top.
 Rotational symmetry number  1.
 Warning -- assumption of classical behavior for rotation
           may cause significant error
 Rotational temperatures (Kelvin)      0.07951     0.03273     0.02355
 Rotational constants (GHZ):           1.65676     0.68197     0.49062
 Zero-point vibrational energy     386191.9 (Joules/Mol)
                                   92.30209 (Kcal/Mol)
 Warning -- explicit consideration of  16 degrees of freedom as
           vibrations may cause significant error
 Vibrational temperatures:     53.29    91.85   182.84   210.09   213.20
          (Kelvin)            263.46   286.91   409.99   454.37   487.74
                              562.34   581.61   619.16   692.22   772.13
                              829.34   922.60   961.83   987.39  1024.56
                             1077.70  1211.37  1233.38  1285.50  1322.73
                             1462.09  1466.11  1478.03  1514.21  1655.47
                             1690.38  1786.30  1801.10  1918.39  1967.55
                             2005.63  2037.75  2103.24  2107.68  2120.65
                             2129.01  2134.02  2203.34  2245.86  2363.40
                             2452.09  4334.31  4349.11  4399.48  4436.28
                             4437.95  4488.12  4508.47  4562.82

 Zero-point correction=                           0.147093 (Hartree/Particle)
 Thermal correction to Energy=                    0.158546
 Thermal correction to Enthalpy=                  0.159490
 Thermal correction to Gibbs Free Energy=         0.108455
 Sum of electronic and zero-point Energies=           -573.514175
 Sum of electronic and thermal Energies=              -573.502722
 Sum of electronic and thermal Enthalpies=            -573.501778
 Sum of electronic and thermal Free Energies=         -573.552813

                     E (Thermal)             CV                S
                      KCal/Mol        Cal/Mol-Kelvin    Cal/Mol-Kelvin
 Total                   99.489             41.845            107.412
 Electronic               0.000              0.000              1.377
 Translational            0.889              2.981             41.193
 Rotational               0.889              2.981             30.740
 Vibrational             97.712             35.883             34.102
 Vibration     1          0.594              1.982              5.412
 Vibration     2          0.597              1.972              4.335
 Vibration     3          0.611              1.926              2.990
 Vibration     4          0.617              1.907              2.723
 Vibration     5          0.618              1.905              2.695
 Vibration     6          0.631              1.863              2.296
 Vibration     7          0.638              1.841              2.139
 Vibration     8          0.683              1.702              1.504
 Vibration     9          0.703              1.643              1.332
 Vibration    10          0.719              1.598              1.217
 Vibration    11          0.759              1.490              0.997
 Vibration    12          0.769              1.461              0.947
 Vibration    13          0.792              1.404              0.858
 Vibration    14          0.837              1.292              0.707
 Vibration    15          0.892              1.169              0.573
 Vibration    16          0.933              1.082              0.492

 Optimization completed.
    -- Stationary point found.
 Normal termination of Gaussian 16 at Sun Dec 17 22:36:14 2023.
