 Q-Chem 5.4, Q-Chem, Inc., Pleasanton, CA (2021)
 Q-Chem 5.4.0 for Intel X86 EM64T Linux

User input:
--------------------------------------------------------------
$molecule
0 1
C                  0.3048080000      3.8785510000      0.4773610000
C                 -0.8695240000      3.4721340000      1.1023070000
C                 -1.2671200000      2.1341250000      1.0454840000
C                  1.0913670000      2.9447880000     -0.2025500000
C                  0.6930740000      1.6036330000     -0.2590230000
C                 -0.4899380000      1.2021070000      0.3650060000
C                  2.3361680000      3.3965960000     -0.8869230000
C                  3.2144880000      2.3483800000     -1.5005940000
C                  2.8178160000      1.0438030000     -1.5786020000
C                  1.5275200000      0.6018840000     -0.9805460000
O                  2.6131240000      4.5819600000     -0.9520070000
O                  1.1713690000     -0.5657810000     -1.0566910000
H                  0.6271060000      4.9119890000      0.5022250000
H                 -1.4779900000      4.1965060000      1.6316680000
H                 -2.1843940000      1.8207310000      1.5309410000
H                 -0.7804720000      0.1606610000      0.3049470000
S                  4.7207820000      2.8155200000     -2.3070460000
C                  3.6341020000     -0.0177000000     -2.2557390000
H                  3.5868820000      0.0885390000     -3.3455520000
H                  3.2551870000     -1.0049700000     -1.9984390000
H                  4.6871290000      0.0683320000     -1.9749770000
C                  5.4100730000      4.2794360000     -1.4073920000
C                  6.8823300000      4.4080510000     -1.7899370000
H                  5.2929670000      4.1085550000     -0.3376910000
H                  4.8396470000      5.1614310000     -1.6821920000
H                  7.4595530000      3.5320720000     -1.4853180000
H                  7.3081010000      5.2860000000     -1.2960270000
H                  7.0074640000      4.5422360000     -2.8677050000
$end
$rem
MAX_SCF_CYCLES=200
BASIS  =  6-311++G(d,p)
GUI  =  2
JOB_TYPE  =  SP
METHOD  =  B3LYP
SOLVENT_METHOD = PCM
$end
$pcm
theory = CPCM
$end
$solvent
dielectric 37.219
opticaldielectric 1.43
$end

--------------------------------------------------------------

             Standard Nuclear Orientation (Angstroms)
    I     Atom           X                Y                Z
 ----------------------------------------------------------------
    1      C       0.3048080000     3.8785510000     0.4773610000
    2      C      -0.8695240000     3.4721340000     1.1023070000
    3      C      -1.2671200000     2.1341250000     1.0454840000
    4      C       1.0913670000     2.9447880000    -0.2025500000
    5      C       0.6930740000     1.6036330000    -0.2590230000
    6      C      -0.4899380000     1.2021070000     0.3650060000
    7      C       2.3361680000     3.3965960000    -0.8869230000
    8      C       3.2144880000     2.3483800000    -1.5005940000
    9      C       2.8178160000     1.0438030000    -1.5786020000
   10      C       1.5275200000     0.6018840000    -0.9805460000
   11      O       2.6131240000     4.5819600000    -0.9520070000
   12      O       1.1713690000    -0.5657810000    -1.0566910000
   13      H       0.6271060000     4.9119890000     0.5022250000
   14      H      -1.4779900000     4.1965060000     1.6316680000
   15      H      -2.1843940000     1.8207310000     1.5309410000
   16      H      -0.7804720000     0.1606610000     0.3049470000
   17      S       4.7207820000     2.8155200000    -2.3070460000
   18      C       3.6341020000    -0.0177000000    -2.2557390000
   19      H       3.5868820000     0.0885390000    -3.3455520000
   20      H       3.2551870000    -1.0049700000    -1.9984390000
   21      H       4.6871290000     0.0683320000    -1.9749770000
   22      C       5.4100730000     4.2794360000    -1.4073920000
   23      C       6.8823300000     4.4080510000    -1.7899370000
   24      H       5.2929670000     4.1085550000    -0.3376910000
   25      H       4.8396470000     5.1614310000    -1.6821920000
   26      H       7.4595530000     3.5320720000    -1.4853180000
   27      H       7.3081010000     5.2860000000    -1.2960270000
   28      H       7.0074640000     4.5422360000    -2.8677050000
 ----------------------------------------------------------------

    9   -1051.4633389226      2.60e-06  Convergence criterion met
 Total energy in the final basis set =    -1051.4633389226

                    Orbital Energies (a.u.)
 --------------------------------------------------------------

 Alpha MOs
 -- Occupied --
-88.8654 -19.1362 -19.1313 -10.2902 -10.2809 -10.2369 -10.2151 -10.2070
-10.2058 -10.2032 -10.1966 -10.1960 -10.1954 -10.1952 -10.1704 -10.1673
 -7.9515  -5.9154  -5.9112  -5.9060  -1.0726  -1.0650  -0.8905  -0.8599
 -0.8065  -0.7835  -0.7770  -0.7416  -0.7028  -0.6796  -0.6396  -0.6202
 -0.6019  -0.5835  -0.5490  -0.5201  -0.5000  -0.4750  -0.4667  -0.4638
 -0.4611  -0.4536  -0.4499  -0.4440  -0.4269  -0.4137  -0.4113  -0.3966
 -0.3915  -0.3826  -0.3774  -0.3724  -0.3667  -0.3637  -0.3362  -0.3081
 -0.2898  -0.2825  -0.2779  -0.2750  -0.2379

          Ground-State Mulliken Net Atomic Charges

     Atom                 Charge (a.u.)
  ----------------------------------------
      1 C                     0.089003
      2 C                    -0.477743
      3 C                    -0.443851
      4 C                     0.177785
      5 C                     0.697274
      6 C                     0.118281
      7 C                    -0.918871
      8 C                     0.976129
      9 C                     0.945982
     10 C                    -1.101809
     11 O                    -0.246032
     12 O                    -0.292081
     13 H                     0.211292
     14 H                     0.221435
     15 H                     0.224462
     16 H                     0.198743
     17 S                    -0.773561
     18 C                    -0.175192
     19 H                     0.217880
     20 H                     0.187126
     21 H                     0.169183
     22 C                    -0.229588
     23 C                    -0.741107
     24 H                     0.241317
     25 H                     0.232133
     26 H                     0.164406
     27 H                     0.160487
     28 H                     0.166917
  ----------------------------------------
  Sum of atomic charges =     0.000000

                    Cartesian Multipole Moments
 -----------------------------------------------------------------
    Charge (ESU x 10^10)
                -0.0000
    Dipole Moment (Debye)
         X       0.1780      Y       2.1264      Z       2.2387
       Tot       3.0928
    Quadrupole Moments (Debye-Ang)
        XX     -81.8910     XY       3.8783     YY    -101.1273
        XZ      -2.7977     YZ       6.1289     ZZ    -102.6282

 Total job time:  53.58s(wall), 349.87s(cpu)
        *  Thank you very much for using Q-Chem.  Have a nice day.  *
