 Gaussian 16, Revision A.03,
 Gaussian 16:  ES64L-G16RevA.03 25-Dec-2016

 ----------------------------------------------------------------------
 #P UB3LYP/6-311++G(d,p) nosym opt freq SCRF=(PCM,Solvent=n,n-DiMethylF
 ormamide)
 ----------------------------------------------------------------------

 -------
 Reduced
 -------
 Symbolic Z-matrix:
 Charge = -2 Multiplicity = 1

 SCF Done:  E(UB3LYP) =  -893.763929760     A.U. after   20 cycles
 SCF Done:  E(UB3LYP) =  -893.763221754     A.U. after   16 cycles
 SCF Done:  E(UB3LYP) =  -893.763934584     A.U. after   17 cycles
 SCF Done:  E(UB3LYP) =  -893.764879694     A.U. after   12 cycles
 SCF Done:  E(UB3LYP) =  -893.765058021     A.U. after   16 cycles
 SCF Done:  E(UB3LYP) =  -893.765306474     A.U. after   15 cycles
 SCF Done:  E(UB3LYP) =  -893.765438162     A.U. after   16 cycles
 SCF Done:  E(UB3LYP) =  -893.765547666     A.U. after   16 cycles
 SCF Done:  E(UB3LYP) =  -893.765616886     A.U. after   15 cycles
 SCF Done:  E(UB3LYP) =  -893.765641732     A.U. after   19 cycles
 SCF Done:  E(UB3LYP) =  -893.765642897     A.U. after   12 cycles
 SCF Done:  E(UB3LYP) =  -893.765643268     A.U. after   12 cycles
 SCF Done:  E(UB3LYP) =  -893.765643327     A.U. after   12 cycles
 Optimization completed.
    -- Stationary point found.
 Normal termination of Gaussian 16 at Sat Feb 10 19:52:29 2024.

 ----------------------------------------------------------------------
 #P Geom=AllCheck Guess=TCheck SCRF=Check GenChk UB3LYP/6-311++G(d,p) F
 req
 ----------------------------------------------------------------------

 Structure from the checkpoint file:  "174-an.chk"
 -------
 Reduced
 -------
 Charge = -2 Multiplicity = 1

                          Input orientation:
 ---------------------------------------------------------------------
 Center     Atomic      Atomic             Coordinates (Angstroms)
 Number     Number       Type             X           Y           Z
 ---------------------------------------------------------------------
      1          8           0        1.874887    2.884983   -1.144687
      2          7           0        2.694433    2.241965   -0.430884
      3          8           0        3.811930    2.778648   -0.088316
      4          6           0        2.403803    0.926723   -0.045087
      5          6           0        3.499616    0.070119    0.112732
      6          6           0        3.327212   -1.308893    0.129324
      7          6           0        2.045636   -1.843959   -0.058824
      8          6           0        0.914827   -1.035527   -0.135419
      9          6           0       -0.390164   -1.694317   -0.250959
     10          8           0       -0.509963   -2.937221   -0.438423
     11          6           0       -1.552494   -0.824841   -0.091487
     12          6           0       -2.851464   -1.367450   -0.205432
     13          6           0       -3.977053   -0.584751   -0.033910
     14          6           0       -3.825505    0.785870    0.266491
     15          6           0       -2.564330    1.335826    0.392317
     16          6           0       -1.392689    0.560589    0.212983
     17          6           0       -0.079580    1.207557    0.350671
     18          8           0       -0.006946    2.419997    0.770785
     19          6           0        1.040821    0.406920    0.009314
     20          1           0        4.491929    0.501581    0.131143
     21          1           0        4.188656   -1.961416    0.213251
     22          1           0        1.906748   -2.916403   -0.133555
     23          1           0       -2.940876   -2.424095   -0.430069
     24          1           0       -4.967441   -1.017266   -0.126655
     25          1           0       -4.704184    1.409338    0.398987
     26          1           0       -2.437810    2.386024    0.625709
 ---------------------------------------------------------------------

 SCF Done:  E(UB3LYP) =  -893.765643327     A.U. after    2 cycles

 Alpha  occ. eigenvalues --  -19.09819 -19.08901 -19.06308 -19.02947 -14.47091
 Alpha  occ. eigenvalues --  -10.21830 -10.19364 -10.18661 -10.17321 -10.16649
 Alpha  occ. eigenvalues --  -10.16611 -10.16386 -10.16230 -10.16203 -10.16004
 Alpha  occ. eigenvalues --  -10.15958 -10.15941 -10.15786 -10.14708  -1.14248
 Alpha  occ. eigenvalues --   -0.98598  -0.96968  -0.94585  -0.85098  -0.84273
 Alpha  occ. eigenvalues --   -0.78214  -0.76726  -0.73878  -0.72705  -0.67847
 Alpha  occ. eigenvalues --   -0.64807  -0.61584  -0.60383  -0.56373  -0.53444
 Alpha  occ. eigenvalues --   -0.52169  -0.51537  -0.47943  -0.47134  -0.46576
 Alpha  occ. eigenvalues --   -0.45657  -0.44740  -0.44066  -0.43002  -0.41386
 Alpha  occ. eigenvalues --   -0.40008  -0.39695  -0.39388  -0.37977  -0.36448
 Alpha  occ. eigenvalues --   -0.35612  -0.34828  -0.34471  -0.33225  -0.32233
 Alpha  occ. eigenvalues --   -0.31687  -0.27441  -0.26526  -0.25371  -0.24588
 Alpha  occ. eigenvalues --   -0.23935  -0.23517  -0.23023  -0.22540  -0.20294
 Alpha  occ. eigenvalues --   -0.12388
 Alpha virt. eigenvalues --   -0.07428  -0.02567  -0.00789   0.00107   0.00783
 Alpha virt. eigenvalues --    0.01599   0.01773   0.02612   0.02876   0.04565
 Alpha virt. eigenvalues --    0.04747   0.04946   0.05388   0.06129   0.06379

  Beta  occ. eigenvalues --  -19.09819 -19.08901 -19.06308 -19.02947 -14.47091
  Beta  occ. eigenvalues --  -10.21830 -10.19364 -10.18661 -10.17321 -10.16649
  Beta  occ. eigenvalues --  -10.16611 -10.16386 -10.16230 -10.16203 -10.16004
  Beta  occ. eigenvalues --  -10.15958 -10.15941 -10.15786 -10.14708  -1.14248
  Beta  occ. eigenvalues --   -0.98598  -0.96968  -0.94585  -0.85098  -0.84273
  Beta  occ. eigenvalues --   -0.78214  -0.76726  -0.73878  -0.72705  -0.67847
  Beta  occ. eigenvalues --   -0.64807  -0.61584  -0.60383  -0.56373  -0.53444
  Beta  occ. eigenvalues --   -0.52169  -0.51537  -0.47943  -0.47134  -0.46576
  Beta  occ. eigenvalues --   -0.45657  -0.44740  -0.44066  -0.43002  -0.41386
  Beta  occ. eigenvalues --   -0.40008  -0.39695  -0.39388  -0.37977  -0.36448
  Beta  occ. eigenvalues --   -0.35612  -0.34828  -0.34471  -0.33225  -0.32233
  Beta  occ. eigenvalues --   -0.31687  -0.27441  -0.26526  -0.25371  -0.24588
  Beta  occ. eigenvalues --   -0.23935  -0.23517  -0.23023  -0.22540  -0.20294
  Beta  occ. eigenvalues --   -0.12388
  Beta virt. eigenvalues --   -0.07428  -0.02567  -0.00789   0.00107   0.00783
  Beta virt. eigenvalues --    0.01599   0.01773   0.02612   0.02876   0.04565
  Beta virt. eigenvalues --    0.04747   0.04946   0.05388   0.06129   0.06379

 Mulliken charges and spin densities:
               1          2
     1  O   -0.201995  -0.000001
     2  N   -0.183875  -0.000001
     3  O   -0.278719  -0.000001
     4  C   -0.243445   0.000000
     5  C   -0.071035  -0.000000
     6  C   -0.698271   0.000000
     7  C   -0.035092  -0.000000
     8  C    0.807858   0.000000
     9  C   -0.213092   0.000000
    10  O   -0.481529   0.000001
    11  C    0.355922   0.000000
    12  C    0.097421   0.000000
    13  C   -0.551635   0.000000
    14  C   -0.492425   0.000000
    15  C    0.035077  -0.000000
    16  C   -0.019073   0.000000
    17  C   -0.580472   0.000000
    18  O   -0.582173   0.000001
    19  C    0.102218  -0.000000
    20  H    0.224647   0.000000
    21  H    0.173223  -0.000000
    22  H    0.163703   0.000000
    23  H    0.162398  -0.000000
    24  H    0.171675  -0.000000
    25  H    0.172450  -0.000000
    26  H    0.166237   0.000000
 Sum of Mulliken charges =  -2.00000   0.00000

 Dipole moment (field-independent basis, Debye):
    X=             -8.6132    Y=            -11.3514    Z=              0.9842  Tot=             14.2832
 Quadrupole moment (field-independent basis, Debye-Ang):
   XX=           -149.1308   YY=           -187.8729   ZZ=           -124.3022
   XY=            -37.6904   XZ=              3.6247   YZ=             -1.1861

  Exact polarizability: 725.822 165.893 483.812 -26.362  -6.070 170.509
 Approx polarizability: 903.223 266.027 649.446 -40.774 -19.618 202.391

                      1                      2                      3
                      A                      A                      A
 Frequencies --     50.7561                53.8460               106.5070
 Red. masses --      8.8663                 7.1967                 7.4680
 Frc consts  --      0.0135                 0.0123                 0.0499
 IR Inten    --     12.4801                77.2705                59.1193

                      4                      5                      6
                      A                      A                      A
 Frequencies --    128.1114               165.8614               193.3892
 Red. masses --      5.7138                 7.3241                 5.8251
 Frc consts  --      0.0553                 0.1187                 0.1284
 IR Inten    --      5.6029                18.1055                10.3198

                      7                      8                      9
                      A                      A                      A
 Frequencies --    196.9432               225.2692               270.0611
 Red. masses --      8.4773                 5.7940                 6.1818
 Frc consts  --      0.1937                 0.1732                 0.2656
 IR Inten    --      2.7646                51.6056                 4.3884

                     10                     11                     12
                      A                      A                      A
 Frequencies --    321.8615               334.8957               360.8370
 Red. masses --      7.9637                 9.7576                 8.6289
 Frc consts  --      0.4861                 0.6448                 0.6620
 IR Inten    --     15.1367               124.3057                54.5862

                     13                     14                     15
                      A                      A                      A
 Frequencies --    379.9596               405.8003               421.3831
 Red. masses --      9.7436                 5.9157                 5.2120
 Frc consts  --      0.8288                 0.5740                 0.5453
 IR Inten    --     15.1313                51.2048               245.6693

                     16                     17                     18
                      A                      A                      A
 Frequencies --    451.1827               473.5664               482.9995
 Red. masses --      4.7493                 7.1714                 6.1001
 Frc consts  --      0.5696                 0.9476                 0.8385
 IR Inten    --     75.6836               349.7022               106.6075

                     19                     20                     21
                      A                      A                      A
 Frequencies --    511.9651               570.8479               615.8929
 Red. masses --      4.9857                 7.2005                 5.6053
 Frc consts  --      0.7699                 1.3825                 1.2527
 IR Inten    --      5.4868                32.5547               101.9072

                     22                     23                     24
                      A                      A                      A
 Frequencies --    631.2653               643.8442               653.8824
 Red. masses --      5.3669                 7.2499                 6.0556
 Frc consts  --      1.2601                 1.7707                 1.5255
 IR Inten    --     27.1099                37.8954                38.8053

                     25                     26                     27
                      A                      A                      A
 Frequencies --    686.0310               708.0698               714.1980
 Red. masses --      6.4691                 2.8256                 6.9178
 Frc consts  --      1.7938                 0.8347                 2.0790
 IR Inten    --     19.4982                80.5149               221.7636

                     28                     29                     30
                      A                      A                      A
 Frequencies --    723.5030               776.5788               785.8169
 Red. masses --      3.0029                 1.7575                 2.0732
 Frc consts  --      0.9261                 0.6245                 0.7543
 IR Inten    --     22.9171                29.6790                39.8373

                     31                     32                     33
                      A                      A                      A
 Frequencies --    800.0285               816.8191               859.0377
 Red. masses --      6.9017                 3.1121                 7.7804
 Frc consts  --      2.6027                 1.2234                 3.3828
 IR Inten    --     92.9993                18.9621               281.7591

                     34                     35                     36
                      A                      A                      A
 Frequencies --    882.2021               927.5421               957.7537
 Red. masses --      1.5710                 6.4124                 1.4478
 Frc consts  --      0.7204                 3.2504                 0.7825
 IR Inten    --      2.6543                 2.2599               284.2561

                     37                     38                     39
                      A                      A                      A
 Frequencies --    976.5998               981.0870               984.2287
 Red. masses --      1.3711                 1.4960                 4.8173
 Frc consts  --      0.7705                 0.8484                 2.7494
 IR Inten    --    138.4287                13.5019               108.2849

                     40                     41                     42
                      A                      A                      A
 Frequencies --    995.9069              1024.3615              1045.9958
 Red. masses --      1.2908                 3.0924                 2.7815
 Frc consts  --      0.7543                 1.9118                 1.7931
 IR Inten    --      3.7786              5140.8855              6656.7472

                     43                     44                     45
                      A                      A                      A
 Frequencies --   1075.7354              1105.2627              1140.2903
 Red. masses --      1.8646                 2.1823                 1.5023
 Frc consts  --      1.2713                 1.5707                 1.1509
 IR Inten    --     76.2175                18.3243                 6.9895

                     46                     47                     48
                      A                      A                      A
 Frequencies --   1157.1272              1183.1827              1188.3252
 Red. masses --      1.7482                 1.8222                 2.0003
 Frc consts  --      1.3791                 1.5030                 1.6643
 IR Inten    --    224.2822               493.8259               757.7979

                     49                     50                     51
                      A                      A                      A
 Frequencies --   1202.8395              1231.3507              1265.7488
 Red. masses --      2.7966                 2.6992                 3.0853
 Frc consts  --      2.3840                 2.4113                 2.9123
 IR Inten    --    804.0631                83.6340               243.2986

                     52                     53                     54
                      A                      A                      A
 Frequencies --   1317.9420              1348.8005              1353.9892
 Red. masses --      5.9951                 3.8847                 5.7329
 Frc consts  --      6.1353                 4.1640                 6.1924
 IR Inten    --    488.2288               113.7532               204.9844

                     55                     56                     57
                      A                      A                      A
 Frequencies --   1367.2364              1404.1262              1418.4572
 Red. masses --      7.6807                 3.2924                 3.9285
 Frc consts  --      8.4594                 3.8246                 4.6570
 IR Inten    --    142.0591               857.7294               233.3283

                     58                     59                     60
                      A                      A                      A
 Frequencies --   1448.4819              1473.8040              1503.2677
 Red. masses --      3.5049                 2.9736                 4.1445
 Frc consts  --      4.3326                 3.8055                 5.5181
 IR Inten    --     84.3534               222.7262               152.4651

                     61                     62                     63
                      A                      A                      A
 Frequencies --   1516.6650              1532.6581              1573.3481
 Red. masses --      4.4759                 5.8529                 6.1827
 Frc consts  --      6.0661                 8.1005                 9.0173
 IR Inten    --    475.5683               140.4638               251.5231

                     64                     65                     66
                      A                      A                      A
 Frequencies --   1610.2551              1625.0599              3151.1609
 Red. masses --      6.5102                 6.1521                 1.0859
 Frc consts  --      9.9457                 9.5721                 6.3533
 IR Inten    --    169.2309               122.0009                16.6467

                     67                     68                     69
                      A                      A                      A
 Frequencies --   3166.7803              3167.5002              3181.8545
 Red. masses --      1.0893                 1.0866                 1.0925
 Frc consts  --      6.4362                 6.4230                 6.5165
 IR Inten    --     26.5742                14.7819                34.4277

                     70                     71                     72
                      A                      A                      A
 Frequencies --   3183.4755              3186.1721              3202.4369
 Red. masses --      1.0917                 1.0940                 1.0927
 Frc consts  --      6.5185                 6.5435                 6.6023
 IR Inten    --     34.7700                71.2533                16.4934

 - Thermochemistry -
 -------------------
 Temperature   298.150 Kelvin.  Pressure   1.00000 Atm.
 Atom     1 has atomic number  8 and mass  15.99491

 Molecular mass:   253.03751 amu.
 Principal axes and moments of inertia in atomic units:
                           1         2         3
     Eigenvalues --  2591.651285801.610998107.62927
           X            0.94919  -0.31110   0.04754
           Y            0.31281   0.94921  -0.03405
           Z           -0.03454   0.04719   0.99829
 This molecule is an asymmetric top.
 Rotational symmetry number  1.
 Warning -- assumption of classical behavior for rotation
           may cause significant error
 Rotational temperatures (Kelvin)      0.03342     0.01493     0.01068
 Rotational constants (GHZ):           0.69637     0.31108     0.22260
 Zero-point vibrational energy     464031.6 (Joules/Mol)
                                  110.90621 (Kcal/Mol)
 Warning -- explicit consideration of  21 degrees of freedom as
           vibrations may cause significant error
 Vibrational temperatures:     73.03    77.47   153.24   184.32   238.64
          (Kelvin)            278.24   283.36   324.11   388.56   463.09
                              481.84   519.16   546.68   583.86   606.28
                              649.15   681.36   694.93   736.60   821.32
                              886.13   908.25   926.35   940.79   987.05
                             1018.75  1027.57  1040.96  1117.32  1130.62
                             1151.06  1175.22  1235.96  1269.29  1334.53
                             1377.99  1405.11  1411.57  1416.09  1432.89
                             1473.83  1504.95  1547.74  1590.23  1640.62
                             1664.85  1702.34  1709.73  1730.62  1771.64
                             1821.13  1896.22  1940.62  1948.09  1967.15
                             2020.22  2040.84  2084.04  2120.48  2162.87
                             2182.14  2205.15  2263.70  2316.80  2338.10
                             4533.82  4556.29  4557.33  4577.98  4580.31
                             4584.19  4607.59

 Zero-point correction=                           0.176740 (Hartree/Particle)
 Thermal correction to Energy=                    0.190567
 Thermal correction to Enthalpy=                  0.191512
 Thermal correction to Gibbs Free Energy=         0.135923
 Sum of electronic and zero-point Energies=           -893.588903
 Sum of electronic and thermal Energies=              -893.575076
 Sum of electronic and thermal Enthalpies=            -893.574132
 Sum of electronic and thermal Free Energies=         -893.629720

                     E (Thermal)             CV                S
                      KCal/Mol        Cal/Mol-Kelvin    Cal/Mol-Kelvin
 Total                  119.583             55.595            116.995
 Electronic               0.000              0.000              0.000
 Translational            0.889              2.981             42.485
 Rotational               0.889              2.981             33.166
 Vibrational            117.805             49.634             41.344
 Vibration     1          0.595              1.977              4.788
 Vibration     2          0.596              1.976              4.671
 Vibration     3          0.605              1.944              3.332
 Vibration     4          0.611              1.925              2.974
 Vibration     5          0.624              1.884              2.482
 Vibration     6          0.635              1.849              2.195
 Vibration     7          0.636              1.844              2.161
 Vibration     8          0.650              1.803              1.916
 Vibration     9          0.674              1.728              1.596
 Vibration    10          0.707              1.632              1.301
 Vibration    11          0.716              1.606              1.236
 Vibration    12          0.735              1.553              1.118
 Vibration    13          0.750              1.513              1.039
 Vibration    14          0.771              1.458              0.942
 Vibration    15          0.784              1.424              0.887
 Vibration    16          0.810              1.358              0.792
 Vibration    17          0.830              1.309              0.728
 Vibration    18          0.839              1.288              0.702
 Vibration    19          0.867              1.223              0.629
 Vibration    20          0.927              1.094              0.503
 Vibration    21          0.975              0.998              0.423

 Optimization completed.
    -- Stationary point found.
 Normal termination of Gaussian 16 at Sat Feb 10 20:52:41 2024.
