 Gaussian 16, Revision A.03,
 Gaussian 16:  ES64L-G16RevA.03 25-Dec-2016

 --------------------------------------
 #P UB3LYP/6-311++G(d,p) nosym opt freq
 --------------------------------------

 -------
 Radical
 -------
 Symbolic Z-matrix:
 Charge = -1 Multiplicity = 2

 SCF Done:  E(UB3LYP) =  -652.234304294     A.U. after   23 cycles
 SCF Done:  E(UB3LYP) =  -652.272966158     A.U. after   19 cycles
 SCF Done:  E(UB3LYP) =  -652.273178569     A.U. after   21 cycles
 SCF Done:  E(UB3LYP) =  -652.285395285     A.U. after   18 cycles
 SCF Done:  E(UB3LYP) =  -652.285517939     A.U. after   18 cycles
 SCF Done:  E(UB3LYP) =  -652.279512797     A.U. after   19 cycles
 SCF Done:  E(UB3LYP) =  -652.286611838     A.U. after   18 cycles
 SCF Done:  E(UB3LYP) =  -652.288301106     A.U. after   21 cycles
 SCF Done:  E(UB3LYP) =  -652.290633764     A.U. after   21 cycles
 SCF Done:  E(UB3LYP) =  -652.290594334     A.U. after   19 cycles
 SCF Done:  E(UB3LYP) =  -652.305287520     A.U. after   18 cycles
 SCF Done:  E(UB3LYP) =  -652.305698517     A.U. after   18 cycles
 SCF Done:  E(UB3LYP) =  -652.306345158     A.U. after   16 cycles
 SCF Done:  E(UB3LYP) =  -652.306510973     A.U. after   15 cycles
 SCF Done:  E(UB3LYP) =  -652.306546216     A.U. after   16 cycles
 SCF Done:  E(UB3LYP) =  -652.306556904     A.U. after   14 cycles
 SCF Done:  E(UB3LYP) =  -652.306559205     A.U. after   13 cycles
 SCF Done:  E(UB3LYP) =  -652.306559593     A.U. after   11 cycles
 SCF Done:  E(UB3LYP) =  -652.306559685     A.U. after   11 cycles
 Optimization completed.
    -- Stationary point found.
 Normal termination of Gaussian 16 at Wed Dec 20 02:48:21 2023.

 ----------------------------------------------------------------------
 #P Geom=AllCheck Guess=TCheck SCRF=Check GenChk UB3LYP/6-311++G(d,p) F
 req
 ----------------------------------------------------------------------

 Structure from the checkpoint file:  "061-rad.chk"
 -------
 Radical
 -------
 Charge = -1 Multiplicity = 2

                          Input orientation:
 ---------------------------------------------------------------------
 Center     Atomic      Atomic             Coordinates (Angstroms)
 Number     Number       Type             X           Y           Z
 ---------------------------------------------------------------------
      1          6           0        0.094719   -0.631183    2.177015
      2          6           0       -0.404337   -1.127927    0.907957
      3          6           0       -0.227229   -0.439052   -0.255119
      4          6           0        0.455069    0.841669   -0.326476
      5          6           0        0.939348    1.367132    0.947203
      6          6           0        0.786912    0.632663    2.110932
      7          8           0       -0.065317   -1.263236    3.260107
      8          8           0        0.633498    1.416277   -1.436431
      9          1           0       -0.922647   -2.082902    0.925228
     10          1           0       -0.588356   -0.829278   -1.202647
     11          6           0        1.674626    2.667169    1.077923
     12          6           0        1.178142    3.986035    0.408100
     13          6           0       -0.325538    3.970953    0.080155
     14          6           0        1.460521    5.142113    1.390538
     15          6           0        2.002936    4.207837   -0.880241
     16          8           0        2.665855    2.727773    1.793167
     17          1           0       -0.557052    3.230859   -0.684227
     18          1           0       -0.625498    4.957386   -0.293005
     19          1           0       -0.922724    3.756434    0.971955
     20          1           0        0.883351    5.027088    2.313818
     21          1           0        1.175254    6.093572    0.928566
     22          1           0        2.516514    5.180371    1.659494
     23          1           0        1.828442    3.393819   -1.584670
     24          1           0        3.070247    4.259345   -0.644834
     25          1           0        1.708819    5.155981   -1.346628
     26          1           0        1.190065    1.017720    3.041459
 ---------------------------------------------------------------------

 SCF Done:  E(UB3LYP) =  -652.306559685     A.U. after    1 cycles

 Alpha  occ. eigenvalues --  -18.98725 -18.94956 -18.94752 -10.13700 -10.10066
 Alpha  occ. eigenvalues --  -10.09047 -10.07823 -10.05341 -10.04937 -10.04614
 Alpha  occ. eigenvalues --  -10.04485 -10.04415 -10.04346 -10.04298  -0.92051
 Alpha  occ. eigenvalues --   -0.87358  -0.86641  -0.70577  -0.69870  -0.63240
 Alpha  occ. eigenvalues --   -0.57846  -0.57590  -0.56199  -0.51647  -0.46999
 Alpha  occ. eigenvalues --   -0.45642  -0.38705  -0.36423  -0.35070  -0.34241
 Alpha  occ. eigenvalues --   -0.33435  -0.32810  -0.31195  -0.30311  -0.29673
 Alpha  occ. eigenvalues --   -0.28405  -0.27594  -0.27218  -0.26195  -0.25533
 Alpha  occ. eigenvalues --   -0.25302  -0.24468  -0.24064  -0.23799  -0.21901
 Alpha  occ. eigenvalues --   -0.21355  -0.15492  -0.14229  -0.12889  -0.11283
 Alpha  occ. eigenvalues --   -0.10613  -0.03820
 Alpha virt. eigenvalues --    0.07500   0.07911   0.09898   0.10167   0.10397
 Alpha virt. eigenvalues --    0.11308   0.12264   0.12581   0.12897   0.13405
 Alpha virt. eigenvalues --    0.13963   0.14356   0.14974   0.15934   0.16473

  Beta  occ. eigenvalues --  -18.98694 -18.94318 -18.93924 -10.13696 -10.09961
  Beta  occ. eigenvalues --  -10.08981 -10.07822 -10.05341 -10.04863 -10.04614
  Beta  occ. eigenvalues --  -10.04486 -10.04332 -10.04205 -10.04117  -0.91991
  Beta  occ. eigenvalues --   -0.86253  -0.85203  -0.70479  -0.69329  -0.62967
  Beta  occ. eigenvalues --   -0.57819  -0.57563  -0.55265  -0.51357  -0.46734
  Beta  occ. eigenvalues --   -0.45314  -0.38550  -0.36243  -0.34907  -0.33875
  Beta  occ. eigenvalues --   -0.33383  -0.32717  -0.31059  -0.30145  -0.29409
  Beta  occ. eigenvalues --   -0.28057  -0.26895  -0.26432  -0.26054  -0.25186
  Beta  occ. eigenvalues --   -0.24618  -0.24183  -0.23726  -0.21965  -0.21529
  Beta  occ. eigenvalues --   -0.20995  -0.13754  -0.12619  -0.11718  -0.10672
  Beta  occ. eigenvalues --   -0.09934
  Beta virt. eigenvalues --    0.03418   0.07901   0.08385   0.09915   0.10222
  Beta virt. eigenvalues --    0.10409   0.11327   0.12305   0.12812   0.13401
  Beta virt. eigenvalues --    0.13623   0.13993   0.14475   0.15002   0.16338

 Mulliken charges and spin densities:
               1          2
     1  C   -0.577532   0.071242
     2  C    0.143419   0.084810
     3  C   -0.223553   0.038959
     4  C   -0.913558   0.081979
     5  C    1.846548   0.038586
     6  C    0.043623   0.153195
     7  O   -0.397692   0.296295
     8  O   -0.369983   0.231553
     9  H    0.150256  -0.005448
    10  H    0.153616  -0.007571
    11  C   -1.244044   0.012657
    12  C    0.954151   0.000354
    13  C   -0.710971   0.001588
    14  C   -0.578812  -0.000570
    15  C   -0.559763   0.009213
    16  O   -0.207689   0.008612
    17  H    0.158062  -0.000310
    18  H    0.113619  -0.000299
    19  H    0.115271  -0.000660
    20  H    0.141402  -0.000139
    21  H    0.115527   0.000465
    22  H    0.170796  -0.000077
    23  H    0.215566  -0.002859
    24  H    0.142134   0.000297
    25  H    0.118374   0.000486
    26  H    0.201232  -0.012358
 Sum of Mulliken charges =  -1.00000   1.00000

 Dipole moment (field-independent basis, Debye):
    X=             -4.3859    Y=             -3.3164    Z=             -6.1398  Tot=              8.2421
 Quadrupole moment (field-independent basis, Debye-Ang):
   XX=           -100.5692   YY=           -108.7533   ZZ=           -121.5209
   XY=            -11.5576   XZ=             -4.3874   YZ=              8.0673

  Exact polarizability: 122.182  33.898 191.978   2.616 -27.403 173.774
 Approx polarizability: 186.608  44.399 253.047   6.248 -53.352 306.528

                      1                      2                      3
                      A                      A                      A
 Frequencies --     33.3432                70.7439                95.8542
 Red. masses --      5.9119                 3.2592                 4.7563
 Frc consts  --      0.0039                 0.0096                 0.0257
 IR Inten    --      1.6183                 0.7546                 3.2554

                      4                      5                      6
                      A                      A                      A
 Frequencies --    144.6828               164.0917               211.2387
 Red. masses --      8.3286                 6.9234                 1.3930
 Frc consts  --      0.1027                 0.1098                 0.0366
 IR Inten    --      9.9194                 4.3873                 0.9267

                      7                      8                      9
                      A                      A                      A
 Frequencies --    228.6575               236.6808               267.0073
 Red. masses --      2.2049                 2.0231                 1.3542
 Frc consts  --      0.0679                 0.0668                 0.0569
 IR Inten    --      0.9727                 1.1977                 2.3687

                     10                     11                     12
                      A                      A                      A
 Frequencies --    283.2448               284.6827               321.0999
 Red. masses --      1.7777                 1.4658                 5.1800
 Frc consts  --      0.0840                 0.0700                 0.3147
 IR Inten    --      2.4416                 3.0333                 0.1270

                     13                     14                     15
                      A                      A                      A
 Frequencies --    350.8868               366.6263               388.0004
 Red. masses --      3.6585                 3.1260                 2.3384
 Frc consts  --      0.2654                 0.2476                 0.2074
 IR Inten    --      0.2140                 1.6471                 1.2360

                     16                     17                     18
                      A                      A                      A
 Frequencies --    416.4551               426.1890               480.4881
 Red. masses --      4.5713                 4.5308                 3.6585
 Frc consts  --      0.4671                 0.4849                 0.4976
 IR Inten    --      2.9050                 5.1865                 1.7488

                     19                     20                     21
                      A                      A                      A
 Frequencies --    483.2143               545.2222               582.1962
 Red. masses --      9.7780                 3.2428                 3.1209
 Frc consts  --      1.3452                 0.5680                 0.6233
 IR Inten    --      0.0718                 8.8363                 2.4366

                     22                     23                     24
                      A                      A                      A
 Frequencies --    632.3260               654.1640               741.8024
 Red. masses --      4.5282                 6.6133                 5.6149
 Frc consts  --      1.0667                 1.6674                 1.8204
 IR Inten    --      2.1032                 1.6246                 3.3459

                     25                     26                     27
                      A                      A                      A
 Frequencies --    764.6537               800.2743               829.8965
 Red. masses --      2.9838                 3.2965                 4.4819
 Frc consts  --      1.0279                 1.2439                 1.8187
 IR Inten    --      4.3797                14.4504                48.8311

                     28                     29                     30
                      A                      A                      A
 Frequencies --    835.1832               864.9255               896.6119
 Red. masses --      2.5225                 4.0628                 1.6791
 Frc consts  --      1.0367                 1.7907                 0.7953
 IR Inten    --     27.6754                26.3810                21.8781

                     31                     32                     33
                      A                      A                      A
 Frequencies --    935.9877               943.1689               963.9486
 Red. masses --      1.7780                 1.6459                 1.2813
 Frc consts  --      0.9177                 0.8626                 0.7015
 IR Inten    --      3.2173                 0.6657                 0.4560

                     34                     35                     36
                      A                      A                      A
 Frequencies --    967.1507               991.9131              1038.3702
 Red. masses --      1.2104                 2.6335                 1.5012
 Frc consts  --      0.6671                 1.5266                 0.9537
 IR Inten    --      0.7717                81.2769                 3.6882

                     37                     38                     39
                      A                      A                      A
 Frequencies --   1051.1222              1084.4987              1151.7246
 Red. masses --      1.4675                 2.1773                 1.7056
 Frc consts  --      0.9553                 1.5088                 1.3330
 IR Inten    --      3.5494                18.6474               129.7387

                     40                     41                     42
                      A                      A                      A
 Frequencies --   1215.5982              1218.3593              1244.6442
 Red. masses --      2.3281                 2.7880                 2.3743
 Frc consts  --      2.0269                 2.4384                 2.1671
 IR Inten    --      3.4471                 6.6481                 7.3826

                     43                     44                     45
                      A                      A                      A
 Frequencies --   1252.6820              1270.1352              1343.3030
 Red. masses --      1.9991                 3.1051                 2.3304
 Frc consts  --      1.8483                 2.9514                 2.4776
 IR Inten    --     23.8507                 5.7815                 7.3894

                     46                     47                     48
                      A                      A                      A
 Frequencies --   1377.7534              1385.8842              1414.7331
 Red. masses --      1.2082                 1.2211                 1.2329
 Frc consts  --      1.3512                 1.3818                 1.4539
 IR Inten    --     17.8980                14.0954                29.0956

                     49                     50                     51
                      A                      A                      A
 Frequencies --   1423.7027              1466.3979              1471.7473
 Red. masses --      4.6070                 5.0655                 1.0489
 Frc consts  --      5.5018                 6.4176                 1.3386
 IR Inten    --     50.3629               146.1956                 0.8924

                     52                     53                     54
                      A                      A                      A
 Frequencies --   1487.6297              1492.0027              1498.3160
 Red. masses --      1.0505                 1.0747                 1.1262
 Frc consts  --      1.3697                 1.4096                 1.4896
 IR Inten    --      4.5448                15.2557                27.9854

                     55                     56                     57
                      A                      A                      A
 Frequencies --   1506.4051              1513.6258              1531.7620
 Red. masses --      6.1241                 1.0628                 1.1560
 Frc consts  --      8.1879                 1.4347                 1.5981
 IR Inten    --     60.2705                22.8573               109.2976

                     58                     59                     60
                      A                      A                      A
 Frequencies --   1532.2086              1634.5738              1686.8877
 Red. masses --      3.6145                 6.7935                11.9952
 Frc consts  --      4.9996                10.6943                20.1109
 IR Inten    --    321.5521                11.1999               219.0419

                     61                     62                     63
                      A                      A                      A
 Frequencies --   3000.2673              3005.6824              3015.2942
 Red. masses --      1.0407                 1.0416                 1.0394
 Frc consts  --      5.5192                 5.5440                 5.5681
 IR Inten    --     61.2620                27.3827               126.1047

                     64                     65                     66
                      A                      A                      A
 Frequencies --   3059.9453              3064.4706              3068.5109
 Red. masses --      1.0979                 1.0966                 1.0994
 Frc consts  --      6.0569                 6.0676                 6.0990
 IR Inten    --      8.1143                31.5320                85.7480

                     67                     68                     69
                      A                      A                      A
 Frequencies --   3112.1541              3116.8750              3131.0305
 Red. masses --      1.0974                 1.1002                 1.0968
 Frc consts  --      6.2626                 6.2975                 6.3351
 IR Inten    --     23.2582                 2.0953                 5.9638

                     70                     71                     72
                      A                      A                      A
 Frequencies --   3135.0758              3157.2719              3172.4863
 Red. masses --      1.0852                 1.0951                 1.0890
 Frc consts  --      6.2842                 6.4315                 6.4579
 IR Inten    --     17.0486                42.8044                 6.2548

 - Thermochemistry -
 -------------------
 Temperature   298.150 Kelvin.  Pressure   1.00000 Atm.
 Atom     1 has atomic number  6 and mass  12.00000

 Molecular mass:   192.07864 amu.
 Principal axes and moments of inertia in atomic units:
                           1         2         3
     Eigenvalues --  1428.102843799.207314569.00094
           X            0.27378   0.29361   0.91588
           Y            0.92727   0.17228  -0.33241
           Z           -0.25538   0.94027  -0.22509
 This molecule is an asymmetric top.
 Rotational symmetry number  1.
 Warning -- assumption of classical behavior for rotation
           may cause significant error
 Rotational temperatures (Kelvin)      0.06065     0.02280     0.01896
 Rotational constants (GHZ):           1.26373     0.47503     0.39500
 Zero-point vibrational energy     535542.7 (Joules/Mol)
                                  127.99777 (Kcal/Mol)
 Warning -- explicit consideration of  21 degrees of freedom as
           vibrations may cause significant error
 Vibrational temperatures:     47.97   101.78   137.91   208.17   236.09
          (Kelvin)            303.93   328.99   340.53   384.16   407.53
                              409.59   461.99   504.85   527.49   558.25
                              599.19   613.19   691.32   695.24   784.45
                              837.65   909.78   941.20  1067.29  1100.17
                             1151.42  1194.04  1201.64  1244.43  1290.02
                             1346.68  1357.01  1386.91  1391.51  1427.14
                             1493.98  1512.33  1560.35  1657.07  1748.97
                             1752.95  1790.77  1802.33  1827.44  1932.71
                             1982.28  1993.98  2035.49  2048.39  2109.82
                             2117.52  2140.37  2146.66  2155.74  2167.38
                             2177.77  2203.86  2204.51  2351.79  2427.06
                             4316.72  4324.51  4338.34  4402.58  4409.09
                             4414.90  4477.70  4484.49  4504.85  4510.67
                             4542.61  4564.50

 Zero-point correction=                           0.203977 (Hartree/Particle)
 Thermal correction to Energy=                    0.217513
 Thermal correction to Enthalpy=                  0.218457
 Thermal correction to Gibbs Free Energy=         0.163494
 Sum of electronic and zero-point Energies=           -652.102582
 Sum of electronic and thermal Energies=              -652.089047
 Sum of electronic and thermal Enthalpies=            -652.088103
 Sum of electronic and thermal Free Energies=         -652.143065

                     E (Thermal)             CV                S
                      KCal/Mol        Cal/Mol-Kelvin    Cal/Mol-Kelvin
 Total                  136.491             51.870            115.678
 Electronic               0.000              0.000              1.377
 Translational            0.889              2.981             41.664
 Rotational               0.889              2.981             31.583
 Vibrational            134.714             45.908             41.053
 Vibration     1          0.594              1.983              5.620
 Vibration     2          0.598              1.968              4.133
 Vibration     3          0.603              1.952              3.537
 Vibration     4          0.616              1.908              2.741
 Vibration     5          0.623              1.887              2.502
 Vibration     6          0.643              1.824              2.033
 Vibration     7          0.651              1.797              1.889
 Vibration     8          0.656              1.785              1.828
 Vibration     9          0.672              1.734              1.616
 Vibration    10          0.682              1.705              1.514
 Vibration    11          0.683              1.702              1.505
 Vibration    12          0.707              1.633              1.304
 Vibration    13          0.728              1.573              1.162
 Vibration    14          0.740              1.541              1.094
 Vibration    15          0.756              1.496              1.008
 Vibration    16          0.780              1.434              0.904
 Vibration    17          0.788              1.413              0.871
 Vibration    18          0.837              1.293              0.709
 Vibration    19          0.839              1.287              0.701
 Vibration    20          0.900              1.150              0.554
 Vibration    21          0.939              1.070              0.481

 Optimization completed.
    -- Stationary point found.
 Normal termination of Gaussian 16 at Wed Dec 20 03:05:06 2023.
