 Gaussian 16, Revision A.03,
 Gaussian 16:  ES64L-G16RevA.03 25-Dec-2016

 ----------------------------------------------------------------------
 #P UB3LYP/6-311++G(d,p) nosym opt freq SCRF=(PCM,Solvent=n,n-DiMethylF
 ormamide)
 ----------------------------------------------------------------------

 -------
 Radical
 -------
 Symbolic Z-matrix:
 Charge = -1 Multiplicity = 2

 SCF Done:  E(UB3LYP) =  -696.318735086     A.U. after   18 cycles
 SCF Done:  E(UB3LYP) =  -696.319329305     A.U. after   16 cycles
 SCF Done:  E(UB3LYP) =  -696.319395145     A.U. after   16 cycles
 SCF Done:  E(UB3LYP) =  -696.319375724     A.U. after   14 cycles
 SCF Done:  E(UB3LYP) =  -696.319409624     A.U. after   14 cycles
 SCF Done:  E(UB3LYP) =  -696.319412846     A.U. after   12 cycles
 SCF Done:  E(UB3LYP) =  -696.319415297     A.U. after   14 cycles
 SCF Done:  E(UB3LYP) =  -696.319415906     A.U. after   13 cycles
 SCF Done:  E(UB3LYP) =  -696.319416026     A.U. after   12 cycles
 Optimization completed.
    -- Stationary point found.
 Normal termination of Gaussian 16 at Sun Feb 11 16:08:31 2024.

 ----------------------------------------------------------------------
 #P Geom=AllCheck Guess=TCheck SCRF=Check GenChk UB3LYP/6-311++G(d,p) F
 req
 ----------------------------------------------------------------------

 Structure from the checkpoint file:  "319-rad.chk"
 -------
 Radical
 -------
 Charge = -1 Multiplicity = 2

                          Input orientation:
 ---------------------------------------------------------------------
 Center     Atomic      Atomic             Coordinates (Angstroms)
 Number     Number       Type             X           Y           Z
 ---------------------------------------------------------------------
      1          6           0       -0.895632    3.860616   -0.614127
      2          6           0       -2.001090    3.079013   -0.134915
      3          6           0       -1.864970    1.772366    0.276710
      4          6           0        0.446267    3.197889   -0.664974
      5          6           0        0.548935    1.821704   -0.205365
      6          6           0       -0.573507    1.159900    0.238619
      7          8           0        1.458004    3.826388   -1.092520
      8          8           0       -1.035951    5.065870   -0.982384
      9          6           0        1.924982    1.191106   -0.243813
     10          6           0        2.043689   -0.250099    0.259000
     11          6           0        3.479500   -0.784207    0.186997
     12          6           0        3.614285   -2.224202    0.691118
     13          6           0       -3.054489    0.962974    0.742834
     14          6           0       -3.558271   -0.052147   -0.302226
     15          6           0       -4.753883   -0.877750    0.185712
     16          6           0       -5.255511   -1.884243   -0.854258
     17          1           0       -2.972316    3.566974   -0.105349
     18          1           0       -0.492342    0.133660    0.581641
     19          1           0        2.611599    1.827829    0.329222
     20          1           0        2.301571    1.244084   -1.273754
     21          1           0        1.390040   -0.907154   -0.327922
     22          1           0        1.692443   -0.314244    1.296344
     23          1           0        4.137261   -0.130119    0.772310
     24          1           0        3.834914   -0.725747   -0.849017
     25          1           0        3.298942   -2.307598    1.736266
     26          1           0        4.648443   -2.574746    0.627062
     27          1           0        2.994065   -2.908236    0.102807
     28          1           0       -3.874565    1.639889    1.004457
     29          1           0       -2.790886    0.418528    1.658541
     30          1           0       -2.739262   -0.727623   -0.576982
     31          1           0       -3.834334    0.486051   -1.217299
     32          1           0       -5.571047   -0.200349    0.462202
     33          1           0       -4.473858   -1.409420    1.103369
     34          1           0       -5.573972   -1.378384   -1.771401
     35          1           0       -6.107885   -2.456615   -0.477050
     36          1           0       -4.469667   -2.596790   -1.124938
 ---------------------------------------------------------------------

 SCF Done:  E(UB3LYP) =  -696.319416026     A.U. after    1 cycles

 Alpha  occ. eigenvalues --  -19.07280 -19.06955 -10.20873 -10.20804 -10.17109
 Alpha  occ. eigenvalues --  -10.16369 -10.16231 -10.16141 -10.16098 -10.16016
 Alpha  occ. eigenvalues --  -10.15894 -10.15776 -10.15702 -10.15462 -10.15389
 Alpha  occ. eigenvalues --  -10.14534  -1.00144  -0.97318  -0.83564  -0.80107
 Alpha  occ. eigenvalues --   -0.78706  -0.75495  -0.72597  -0.69681  -0.67864
 Alpha  occ. eigenvalues --   -0.63742  -0.62022  -0.58305  -0.57739  -0.55239
 Alpha  occ. eigenvalues --   -0.54285  -0.48109  -0.46921  -0.46542  -0.45910
 Alpha  occ. eigenvalues --   -0.43114  -0.42644  -0.42087  -0.41920  -0.40897
 Alpha  occ. eigenvalues --   -0.40486  -0.39953  -0.39755  -0.38267  -0.37361
 Alpha  occ. eigenvalues --   -0.36570  -0.35737  -0.35515  -0.34036  -0.33899
 Alpha  occ. eigenvalues --   -0.33309  -0.32888  -0.32518  -0.32133  -0.32063
 Alpha  occ. eigenvalues --   -0.31941  -0.29761  -0.24953  -0.21909  -0.21767
 Alpha  occ. eigenvalues --   -0.16051
 Alpha virt. eigenvalues --   -0.00506   0.00155   0.00748   0.00839   0.01257
 Alpha virt. eigenvalues --    0.01603   0.01777   0.02395   0.02676   0.03114
 Alpha virt. eigenvalues --    0.03686   0.04000   0.04381   0.04627   0.05122

  Beta  occ. eigenvalues --  -19.06604 -19.06334 -10.20729 -10.20638 -10.16913
  Beta  occ. eigenvalues --  -10.16379 -10.16154 -10.16137 -10.16076 -10.16016
  Beta  occ. eigenvalues --  -10.15900 -10.15777 -10.15569 -10.15462 -10.15389
  Beta  occ. eigenvalues --  -10.14537  -0.99010  -0.96098  -0.83131  -0.80043
  Beta  occ. eigenvalues --   -0.78606  -0.75351  -0.72392  -0.69498  -0.67191
  Beta  occ. eigenvalues --   -0.63659  -0.61694  -0.58221  -0.57685  -0.54957
  Beta  occ. eigenvalues --   -0.53858  -0.47973  -0.46883  -0.46266  -0.45824
  Beta  occ. eigenvalues --   -0.42885  -0.42344  -0.41882  -0.41738  -0.40779
  Beta  occ. eigenvalues --   -0.40406  -0.39448  -0.38284  -0.37939  -0.37093
  Beta  occ. eigenvalues --   -0.36434  -0.35544  -0.35010  -0.33944  -0.33682
  Beta  occ. eigenvalues --   -0.32857  -0.32469  -0.32319  -0.32068  -0.31830
  Beta  occ. eigenvalues --   -0.30298  -0.28183  -0.24305  -0.21323  -0.20436
  Beta virt. eigenvalues --   -0.08835  -0.00491   0.00170   0.00795   0.01000
  Beta virt. eigenvalues --    0.01627   0.01823   0.02194   0.02948   0.03220
  Beta virt. eigenvalues --    0.03683   0.04080   0.04183   0.04568   0.04714

 Mulliken charges and spin densities:
               1          2
     1  C   -0.312731   0.152375
     2  C   -0.234281  -0.018766
     3  C    0.679553   0.091995
     4  C   -0.229766   0.084458
     5  C    1.481799   0.074292
     6  C   -1.128411   0.086833
     7  O   -0.482760   0.255591
     8  O   -0.526748   0.225756
     9  C   -0.076703   0.027981
    10  C   -0.135396  -0.004308
    11  C   -0.283690   0.000248
    12  C   -0.637111  -0.000083
    13  C   -0.799725   0.024603
    14  C   -0.276206  -0.016954
    15  C   -0.211500   0.017721
    16  C   -0.647578  -0.001534
    17  H    0.167169  -0.001649
    18  H    0.149440  -0.009189
    19  H    0.178068   0.003830
    20  H    0.176694   0.003888
    21  H    0.110287   0.000126
    22  H    0.112751  -0.000115
    23  H    0.134118  -0.000176
    24  H    0.131877  -0.000168
    25  H    0.139788  -0.000001
    26  H    0.148937  -0.000014
    27  H    0.139452   0.000011
    28  H    0.171407   0.000198
    29  H    0.147482   0.004649
    30  H    0.098351  -0.002685
    31  H    0.134536   0.000533
    32  H    0.125896  -0.000197
    33  H    0.130199  -0.000068
    34  H    0.141171  -0.000033
    35  H    0.142437   0.000653
    36  H    0.141193   0.000200
 Sum of Mulliken charges =  -1.00000   1.00000

 Dipole moment (field-independent basis, Debye):
    X=             -0.9064    Y=            -22.6006    Z=              5.3296  Tot=             23.2382
 Quadrupole moment (field-independent basis, Debye-Ang):
   XX=           -109.7378   YY=           -210.5447   ZZ=           -109.9200
   XY=             -0.4905   XZ=              1.0755   YZ=             24.0132

  Exact polarizability: 294.499   4.045 292.358 -17.885 -31.705 194.535
 Approx polarizability: 300.331   8.125 306.967 -21.852 -36.167 216.776

                      1                      2                      3
                      A                      A                      A
 Frequencies --     20.0774                34.3693                53.7020
 Red. masses --      3.1724                 3.2504                 3.7436
 Frc consts  --      0.0008                 0.0023                 0.0064
 IR Inten    --      1.1569                 3.0546                 3.3502

                      4                      5                      6
                      A                      A                      A
 Frequencies --     64.8529                76.5227                86.1638
 Red. masses --      1.7142                 2.1244                 3.2083
 Frc consts  --      0.0042                 0.0073                 0.0140
 IR Inten    --      0.5193                 0.7902                 2.1412

                      7                      8                      9
                      A                      A                      A
 Frequencies --    105.1004               118.2907               128.0108
 Red. masses --      3.7451                 2.3162                 2.1228
 Frc consts  --      0.0244                 0.0191                 0.0205
 IR Inten    --      0.1742                 0.2070                 0.4211

                     10                     11                     12
                      A                      A                      A
 Frequencies --    193.3009               209.1473               222.5631
 Red. masses --      3.3666                 3.1338                 2.9130
 Frc consts  --      0.0741                 0.0808                 0.0850
 IR Inten    --      0.0530                 3.8602                 5.0458

                     13                     14                     15
                      A                      A                      A
 Frequencies --    238.6313               247.3717               253.1816
 Red. masses --      1.4035                 1.2302                 2.5583
 Frc consts  --      0.0471                 0.0444                 0.0966
 IR Inten    --      3.2084                 0.6931                 3.1463

                     16                     17                     18
                      A                      A                      A
 Frequencies --    262.4731               315.4563               345.5758
 Red. masses --      3.9039                 3.3904                 4.1667
 Frc consts  --      0.1585                 0.1988                 0.2932
 IR Inten    --      2.2908                 0.8968                 1.3327

                     19                     20                     21
                      A                      A                      A
 Frequencies --    371.0326               416.6373               427.7476
 Red. masses --     11.9963                 3.2326                 3.1210
 Frc consts  --      0.9730                 0.3306                 0.3365
 IR Inten    --      1.2335                 0.9025                 2.4004

                     22                     23                     24
                      A                      A                      A
 Frequencies --    474.8402               544.1561               547.6344
 Red. masses --      6.3575                 5.0705                 4.2287
 Frc consts  --      0.8446                 0.8846                 0.7472
 IR Inten    --     35.7840                 4.6677                 7.6241

                     25                     26                     27
                      A                      A                      A
 Frequencies --    600.2022               652.2720               676.0321
 Red. masses --      3.8676                 4.2353                 4.3853
 Frc consts  --      0.8209                 1.0617                 1.1808
 IR Inten    --      5.0192                15.7449                 8.3795

                     28                     29                     30
                      A                      A                      A
 Frequencies --    731.9541               734.2352               768.4232
 Red. masses --      1.1527                 1.0834                 1.8146
 Frc consts  --      0.3639                 0.3441                 0.6313
 IR Inten    --      7.6351                 5.0183                 0.1868

                     31                     32                     33
                      A                      A                      A
 Frequencies --    794.6817               798.2483               803.1119
 Red. masses --      2.1352                 1.7917                 1.8531
 Frc consts  --      0.7945                 0.6726                 0.7042
 IR Inten    --      1.0197                 8.7876                 7.5689

                     34                     35                     36
                      A                      A                      A
 Frequencies --    851.5969               870.3534               904.6603
 Red. masses --      1.5632                 1.4262                 1.8730
 Frc consts  --      0.6679                 0.6365                 0.9031
 IR Inten    --     49.2366                 1.2208                 2.5128

                     37                     38                     39
                      A                      A                      A
 Frequencies --    905.8726               932.3323               944.6164
 Red. masses --      1.8012                 1.4195                 1.2720
 Frc consts  --      0.8708                 0.7270                 0.6687
 IR Inten    --      5.3627                 3.5914                 3.2054

                     40                     41                     42
                      A                      A                      A
 Frequencies --    959.8594               989.7411              1013.1795
 Red. masses --      3.4970                 4.2662                 3.3844
 Frc consts  --      1.8983                 2.4623                 2.0469
 IR Inten    --     22.0732                 3.9340                 7.9863

                     43                     44                     45
                      A                      A                      A
 Frequencies --   1038.8355              1053.2640              1067.8714
 Red. masses --      2.9336                 2.5012                 2.2318
 Frc consts  --      1.8653                 1.6348                 1.4995
 IR Inten    --      5.3025                 0.3654                 1.2094

                     46                     47                     48
                      A                      A                      A
 Frequencies --   1109.5961              1115.5992              1120.5728
 Red. masses --      1.4239                 2.1301                 2.3728
 Frc consts  --      1.0329                 1.5619                 1.7555
 IR Inten    --     10.1926                10.9577                 1.0570

                     49                     50                     51
                      A                      A                      A
 Frequencies --   1122.1746              1168.9378              1215.5787
 Red. masses --      1.4730                 2.2225                 2.0777
 Frc consts  --      1.0929                 1.7892                 1.8088
 IR Inten    --      0.1543                11.4949                28.3158

                     52                     53                     54
                      A                      A                      A
 Frequencies --   1229.3317              1237.9596              1245.9797
 Red. masses --      1.6041                 1.3855                 2.6878
 Frc consts  --      1.4283                 1.2510                 2.4584
 IR Inten    --      1.0024                 0.1307                 1.5327

                     55                     56                     57
                      A                      A                      A
 Frequencies --   1276.9245              1279.6033              1304.2912
 Red. masses --      1.3376                 1.4549                 1.2568
 Frc consts  --      1.2850                 1.4035                 1.2597
 IR Inten    --      5.0883                 3.2493                 0.8956

                     58                     59                     60
                      A                      A                      A
 Frequencies --   1305.1675              1325.2814              1327.3294
 Red. masses --      1.1667                 1.0812                 1.0647
 Frc consts  --      1.1710                 1.1188                 1.1052
 IR Inten    --      0.4069                 0.1471                 0.0827

                     61                     62                     63
                      A                      A                      A
 Frequencies --   1336.1873              1351.5175              1373.6418
 Red. masses --      1.5110                 1.4108                 1.7815
 Frc consts  --      1.5895                 1.5183                 1.9805
 IR Inten    --      2.7032                 1.6896                 0.5895

                     64                     65                     66
                      A                      A                      A
 Frequencies --   1383.3639              1394.5393              1403.1073
 Red. masses --      1.5490                 2.0073                 1.2555
 Frc consts  --      1.7465                 2.3000                 1.4563
 IR Inten    --      2.0193                26.4978                 1.7758

                     67                     68                     69
                      A                      A                      A
 Frequencies --   1403.4074              1416.1351              1462.0212
 Red. masses --      1.2706                 2.3981                 1.1244
 Frc consts  --      1.4744                 2.8335                 1.4160
 IR Inten    --      1.5506                62.8002                16.4132

                     70                     71                     72
                      A                      A                      A
 Frequencies --   1470.5494              1475.6500              1478.9706
 Red. masses --      1.0765                 1.0607                 1.0821
 Frc consts  --      1.3716                 1.3608                 1.3945
 IR Inten    --      2.8374                 4.8138                 2.1053

                     73                     74                     75
                      A                      A                      A
 Frequencies --   1487.9753              1488.0585              1490.4126
 Red. masses --      1.0403                 1.0402                 1.1151
 Frc consts  --      1.3571                 1.3571                 1.4594
 IR Inten    --     10.4761                11.4968                13.5784

                     76                     77                     78
                      A                      A                      A
 Frequencies --   1491.6212              1493.5298              1497.6799
 Red. masses --      1.1692                 6.9665                 4.3953
 Frc consts  --      1.5327                 9.1558                 5.8087
 IR Inten    --     26.0587               730.0923               447.1602

                     79                     80                     81
                      A                      A                      A
 Frequencies --   1504.1044              1504.4858              1556.7425
 Red. masses --      1.1090                 1.1086                 7.2243
 Frc consts  --      1.4782                 1.4784                10.3152
 IR Inten    --     29.1923                 4.3145               227.4947

                     82                     83                     84
                      A                      A                      A
 Frequencies --   1616.6610              2994.3998              2997.6504
 Red. masses --      4.9734                 1.0588                 1.0579
 Frc consts  --      7.6584                 5.5937                 5.6008
 IR Inten    --     76.7258                11.5570                 4.9121

                     85                     86                     87
                      A                      A                      A
 Frequencies --   2998.1599              2999.7385              3005.3066
 Red. masses --      1.0599                 1.0596                 1.0597
 Frc consts  --      5.6134                 5.6176                 5.6394
 IR Inten    --     15.3823                 2.6221               158.8301

                     88                     89                     90
                      A                      A                      A
 Frequencies --   3006.3896              3007.8078              3013.0289
 Red. masses --      1.0984                 1.0606                 1.0356
 Frc consts  --      5.8493                 5.6532                 5.5394
 IR Inten    --     13.6458               150.8804                60.7295

                     91                     92                     93
                      A                      A                      A
 Frequencies --   3013.7362              3019.2389              3020.4199
 Red. masses --      1.0359                 1.0993                 1.1017
 Frc consts  --      5.5436                 5.9041                 5.9216
 IR Inten    --     68.5846                 2.7543                 1.7153

                     94                     95                     96
                      A                      A                      A
 Frequencies --   3036.2973              3042.9399              3054.9154
 Red. masses --      1.1008                 1.1050                 1.1035
 Frc consts  --      5.9791                 6.0282                 6.0677
 IR Inten    --     14.2996               108.0572               100.6945

                     97                     98                     99
                      A                      A                      A
 Frequencies --   3071.7589              3072.9787              3076.5582
 Red. masses --      1.1027                 1.1027                 1.1011
 Frc consts  --      6.1301                 6.1351                 6.1405
 IR Inten    --    118.6937               123.7570                75.1042

                    100                    101                    102
                      A                      A                      A
 Frequencies --   3076.9295              3135.8463              3158.8193
 Red. masses --      1.1012                 1.0894                 1.0881
 Frc consts  --      6.1426                 6.3115                 6.3969
 IR Inten    --     73.9719                51.7674                28.7522

 - Thermochemistry -
 -------------------
 Temperature   298.150 Kelvin.  Pressure   1.00000 Atm.
 Atom     1 has atomic number  6 and mass  12.00000

 Molecular mass:   220.14633 amu.
 Principal axes and moments of inertia in atomic units:
                           1         2         3
     Eigenvalues --  4013.699336068.394459660.62397
           X            0.99656  -0.07420  -0.03695
           Y            0.07912   0.98439   0.15720
           Z            0.02471  -0.15959   0.98687
 This molecule is an asymmetric top.
 Rotational symmetry number  1.
 Warning -- assumption of classical behavior for rotation
           may cause significant error
 Rotational temperatures (Kelvin)      0.02158     0.01427     0.00897
 Rotational constants (GHZ):           0.44965     0.29740     0.18681
 Zero-point vibrational energy     808171.9 (Joules/Mol)
                                  193.15772 (Kcal/Mol)
 Warning -- explicit consideration of  25 degrees of freedom as
           vibrations may cause significant error
 Vibrational temperatures:     28.89    49.45    77.27    93.31   110.10
          (Kelvin)            123.97   151.22   170.19   184.18   278.12
                              300.92   320.22   343.34   355.91   364.27
                              377.64   453.87   497.21   533.83   599.45
                              615.43   683.19   782.92   787.92   863.56
                              938.47   972.66  1053.12  1056.40  1105.59
                             1143.37  1148.50  1155.50  1225.26  1252.24
                             1301.60  1303.35  1341.42  1359.09  1381.02
                             1424.02  1457.74  1494.65  1515.41  1536.43
                             1596.46  1605.10  1612.25  1614.56  1681.84
                             1748.95  1768.73  1781.15  1792.69  1837.21
                             1841.06  1876.58  1877.84  1906.78  1909.73
                             1922.48  1944.53  1976.36  1990.35  2006.43
                             2018.76  2019.19  2037.50  2103.52  2115.79
                             2123.13  2127.91  2140.86  2140.98  2144.37
                             2146.11  2148.86  2154.83  2164.07  2164.62
                             2239.81  2326.01  4308.27  4312.95  4313.68
                             4315.95  4323.97  4325.52  4327.56  4335.08
                             4336.09  4344.01  4345.71  4368.55  4378.11
                             4395.34  4419.58  4421.33  4426.48  4427.02
                             4511.78  4544.84

 Zero-point correction=                           0.307816 (Hartree/Particle)
 Thermal correction to Energy=                    0.325438
 Thermal correction to Enthalpy=                  0.326382
 Thermal correction to Gibbs Free Energy=         0.259514
 Sum of electronic and zero-point Energies=           -696.011600
 Sum of electronic and thermal Energies=              -695.993978
 Sum of electronic and thermal Enthalpies=            -695.993034
 Sum of electronic and thermal Free Energies=         -696.059902

                     E (Thermal)             CV                S
                      KCal/Mol        Cal/Mol-Kelvin    Cal/Mol-Kelvin
 Total                  204.216             64.375            140.735
 Electronic               0.000              0.000              1.377
 Translational            0.889              2.981             42.070
 Rotational               0.889              2.981             33.820
 Vibrational            202.438             58.414             63.468
 Vibration     1          0.593              1.986              6.627
 Vibration     2          0.594              1.983              5.560
 Vibration     3          0.596              1.976              4.676
 Vibration     4          0.597              1.971              4.304
 Vibration     5          0.599              1.965              3.978
 Vibration     6          0.601              1.959              3.745
 Vibration     7          0.605              1.945              3.357
 Vibration     8          0.608              1.934              3.128
 Vibration     9          0.611              1.925              2.976
 Vibration    10          0.635              1.849              2.196
 Vibration    11          0.642              1.827              2.051
 Vibration    12          0.648              1.807              1.938
 Vibration    13          0.657              1.781              1.813
 Vibration    14          0.661              1.767              1.749
 Vibration    15          0.664              1.757              1.708
 Vibration    16          0.670              1.742              1.645
 Vibration    17          0.703              1.644              1.334
 Vibration    18          0.724              1.584              1.186
 Vibration    19          0.743              1.532              1.076
 Vibration    20          0.780              1.434              0.903
 Vibration    21          0.789              1.410              0.866
 Vibration    22          0.832              1.306              0.724
 Vibration    23          0.899              1.152              0.556
 Vibration    24          0.903              1.145              0.549
 Vibration    25          0.958              1.031              0.449

 Optimization completed.
    -- Stationary point found.
 Normal termination of Gaussian 16 at Sun Feb 11 17:23:18 2024.
