 Gaussian 16, Revision A.03,
 Gaussian 16:  ES64L-G16RevA.03 25-Dec-2016

 ----------------------------------------------------------------
 #P UB3LYP/6-311++G(d,p) SCRF=(PCM,Solvent=n,n-DiMethylFormamide)
 ----------------------------------------------------------------

 ------------------
 Radical PCM in DMF
 ------------------
 Symbolic Z-matrix:
 Charge = -1 Multiplicity = 2

                         Standard orientation:
 ---------------------------------------------------------------------
 Center     Atomic      Atomic             Coordinates (Angstroms)
 Number     Number       Type             X           Y           Z
 ---------------------------------------------------------------------
      1          6           0        2.207758   -0.720256   -0.000510
      2          6           0        0.794809   -1.024090   -0.000195
      3          6           0       -0.177716   -0.049011   -0.000246
      4          6           0        0.151400    1.373805   -0.000583
      5          6           0        1.575702    1.662472    0.000037
      6          6           0        2.535368    0.692380    0.000088
      7          8           0        3.091319   -1.624251    0.000325
      8          8           0       -0.712876    2.285315    0.000207
      9          6           0       -1.623479   -0.435944    0.000005
     10          9           0       -1.805239   -1.792926    0.000309
     11          9           0       -2.306596    0.014800    1.087172
     12          9           0       -2.306899    0.014357   -1.087118
     13          1           0        0.526672   -2.073829   -0.000031
     14          1           0        1.839500    2.716288    0.000418
     15          1           0        3.591839    0.946803    0.000524
 ---------------------------------------------------------------------

 SCF Done:  E(UB3LYP) =  -718.878373644     A.U. after   18 cycles

 The electronic state is 2-A.
 Alpha  occ. eigenvalues --  -24.71029 -24.70971 -24.70969 -19.08834 -19.08803
 Alpha  occ. eigenvalues --  -10.42793 -10.23785 -10.22983 -10.19422 -10.18344
 Alpha  occ. eigenvalues --  -10.17480 -10.17406  -1.31309  -1.22533  -1.22432
 Alpha  occ. eigenvalues --   -1.01425  -1.00767  -0.84411  -0.78192  -0.71912
 Alpha  occ. eigenvalues --   -0.68529  -0.62896  -0.60669  -0.59405  -0.58203
 Alpha  occ. eigenvalues --   -0.53501  -0.48557  -0.47596  -0.47493  -0.47113
 Alpha  occ. eigenvalues --   -0.44935  -0.43868  -0.42792  -0.41564  -0.41476
 Alpha  occ. eigenvalues --   -0.41243  -0.40846  -0.38638  -0.38451  -0.37183
 Alpha  occ. eigenvalues --   -0.29692  -0.27566  -0.25395  -0.24918  -0.17588
 Alpha virt. eigenvalues --   -0.03101   0.00276   0.01230   0.01584   0.02154
 Alpha virt. eigenvalues --    0.04425   0.04582   0.05052   0.05981   0.07461
 Alpha virt. eigenvalues --    0.07678   0.08187   0.08366   0.10267   0.10875

  Beta  occ. eigenvalues --  -24.71032 -24.70959 -24.70958 -19.08172 -19.08029
  Beta  occ. eigenvalues --  -10.42798 -10.23682 -10.22872 -10.19311 -10.18141
  Beta  occ. eigenvalues --  -10.17407 -10.17312  -1.31295  -1.22507  -1.22427
  Beta  occ. eigenvalues --   -1.00280  -0.99409  -0.83807  -0.77927  -0.71434
  Beta  occ. eigenvalues --   -0.67793  -0.62604  -0.60480  -0.59359  -0.58010
  Beta  occ. eigenvalues --   -0.53169  -0.48353  -0.47456  -0.47174  -0.47069
  Beta  occ. eigenvalues --   -0.44688  -0.43669  -0.42642  -0.41388  -0.40931
  Beta  occ. eigenvalues --   -0.40663  -0.39603  -0.38200  -0.36952  -0.35519
  Beta  occ. eigenvalues --   -0.26981  -0.25909  -0.24731  -0.24254
  Beta virt. eigenvalues --   -0.10226  -0.01577   0.00308   0.01602   0.02191
  Beta virt. eigenvalues --    0.02984   0.04456   0.04628   0.05653   0.06058
  Beta virt. eigenvalues --    0.07585   0.07716   0.08200   0.08541   0.10319

 Mulliken charges and spin densities:
               1          2
     1  C   -0.516770   0.101299
     2  C   -0.378026   0.124404
     3  C    0.337962   0.078059
     4  C   -0.409772   0.063609
     5  C   -0.020819   0.077857
     6  C    0.193451   0.055383
     7  O   -0.483621   0.271307
     8  O   -0.467682   0.238926
     9  C    0.579696   0.008530
    10  F   -0.193680  -0.001369
    11  F   -0.112901   0.002159
    12  F   -0.112840   0.002160
    13  H    0.189375  -0.011328
    14  H    0.197024  -0.006690
    15  H    0.198603  -0.004306
 Sum of Mulliken charges =  -1.00000   1.00000

 Dipole moment (field-independent basis, Debye):
    X=             -1.7700    Y=             -0.3716    Z=             -0.0018  Tot=              1.8086
 Quadrupole moment (field-independent basis, Debye-Ang):
   XX=            -98.5438   YY=            -88.4379   ZZ=            -71.2745
   XY=             18.4637   XZ=             -0.0008   YZ=              0.0009

 Normal termination of Gaussian 16 at Wed Jan 24 22:49:16 2024.
