 Gaussian 16, Revision A.03,
 Gaussian 16:  ES64L-G16RevA.03 25-Dec-2016

 ----------------------------------------------------------------------
 #P UB3LYP/6-311++G(d,p) nosym opt freq SCRF=(PCM,Solvent=n,n-DiMethylF
 ormamide)
 ----------------------------------------------------------------------

 -------
 Radical
 -------
 Symbolic Z-matrix:
 Charge = -1 Multiplicity = 2

 SCF Done:  E(UB3LYP) =  -846.403323102     A.U. after   16 cycles
 SCF Done:  E(UB3LYP) =  -846.403650734     A.U. after   12 cycles
 SCF Done:  E(UB3LYP) =  -846.403685483     A.U. after   12 cycles
 Optimization completed.
    -- Stationary point found.
 Normal termination of Gaussian 16 at Sat Feb 10 16:17:27 2024.

 ----------------------------------------------------------------------
 #P Geom=AllCheck Guess=TCheck SCRF=Check GenChk UB3LYP/6-311++G(d,p) F
 req
 ----------------------------------------------------------------------

 Structure from the checkpoint file:  "132-rad.chk"
 -------
 Radical
 -------
 Charge = -1 Multiplicity = 2

                          Input orientation:
 ---------------------------------------------------------------------
 Center     Atomic      Atomic             Coordinates (Angstroms)
 Number     Number       Type             X           Y           Z
 ---------------------------------------------------------------------
      1          6           0        6.884544   -1.623337   -0.244957
      2          6           0        7.465754   -0.667950   -1.059126
      3          6           0        6.638586    0.347949   -1.628942
      4          6           0        5.284304    0.342036   -1.347437
      5          6           0        4.678669   -0.628582   -0.517652
      6          6           0        5.502373   -1.640239    0.049687
      7          6           0        4.956785   -2.680167    0.917179
      8          6           0        3.520078   -2.625320    1.171169
      9          6           0        2.696374   -1.613663    0.603831
     10          6           0        3.241958   -0.573754   -0.263691
     11          6           0        2.914450   -3.595919    2.000979
     12          6           0        1.560173   -3.601812    2.282510
     13          6           0        0.733005   -2.585915    1.712694
     14          6           0        1.314210   -1.630545    0.898499
     15          8           0        5.689865   -3.580867    1.421477
     16          8           0        2.508886    0.326975   -0.767948
     17          6           0        0.967834   -4.663816    3.176407
     18          6           0       -0.749449   -2.554472    1.993740
     19          6           0        8.948218   -0.699357   -1.340123
     20          6           0        7.230936    1.409993   -2.522784
     21          1           0        7.499369   -2.400667    0.195183
     22          1           0        4.644004    1.107053   -1.772366
     23          1           0        3.554749   -4.360940    2.425904
     24          1           0        0.699384   -0.853216    0.458358
     25          1           0        1.737406   -5.355586    3.523273
     26          1           0        0.200071   -5.246508    2.656185
     27          1           0        0.485491   -4.226453    4.057112
     28          1           0       -0.954599   -2.456738    3.065183
     29          1           0       -1.242062   -3.475322    1.663610
     30          1           0       -1.225815   -1.716271    1.482306
     31          1           0        9.424568   -1.537611   -0.828761
     32          1           0        9.440813    0.221459   -1.009867
     33          1           0        9.153414   -0.796972   -2.411566
     34          1           0        7.713452    0.972668   -3.403411
     35          1           0        7.998562    1.992778   -2.002461
     36          1           0        6.461340    2.101677   -2.869767
 ---------------------------------------------------------------------

 SCF Done:  E(UB3LYP) =  -846.403685483     A.U. after    1 cycles

 Alpha  occ. eigenvalues --  -19.07015 -19.07014 -10.21836 -10.21834 -10.17711
 Alpha  occ. eigenvalues --  -10.17711 -10.17668 -10.17668 -10.16631 -10.16630
 Alpha  occ. eigenvalues --  -10.16586 -10.16586 -10.16225 -10.16225 -10.16224
 Alpha  occ. eigenvalues --  -10.16223 -10.16209 -10.16209 -10.16209 -10.16209
 Alpha  occ. eigenvalues --   -0.99360  -0.99092  -0.86111  -0.85409  -0.80133
 Alpha  occ. eigenvalues --   -0.76836  -0.76204  -0.76160  -0.70770  -0.70124
 Alpha  occ. eigenvalues --   -0.69708  -0.66466  -0.63903  -0.60660  -0.58403
 Alpha  occ. eigenvalues --   -0.58317  -0.55138  -0.50401  -0.50398  -0.47958
 Alpha  occ. eigenvalues --   -0.45434  -0.44537  -0.44010  -0.43458  -0.43156
 Alpha  occ. eigenvalues --   -0.42049  -0.41537  -0.40989  -0.40936  -0.40526
 Alpha  occ. eigenvalues --   -0.40112  -0.39750  -0.39727  -0.38386  -0.38385
 Alpha  occ. eigenvalues --   -0.37403  -0.37332  -0.37095  -0.35560  -0.34490
 Alpha  occ. eigenvalues --   -0.33432  -0.33411  -0.32384  -0.31965  -0.25356
 Alpha  occ. eigenvalues --   -0.24925  -0.24670  -0.24129  -0.23238  -0.23108
 Alpha  occ. eigenvalues --   -0.13684
 Alpha virt. eigenvalues --   -0.04708  -0.01332  -0.00598  -0.00177   0.00090
 Alpha virt. eigenvalues --    0.01010   0.01406   0.01752   0.03245   0.03540
 Alpha virt. eigenvalues --    0.03550   0.03660   0.03729   0.04547   0.04559

  Beta  occ. eigenvalues --  -19.06468 -19.06468 -10.21643 -10.21642 -10.17669
  Beta  occ. eigenvalues --  -10.17669 -10.17626 -10.17626 -10.16561 -10.16560
  Beta  occ. eigenvalues --  -10.16516 -10.16516 -10.16215 -10.16215 -10.16214
  Beta  occ. eigenvalues --  -10.16214 -10.16212 -10.16212 -10.16212 -10.16212
  Beta  occ. eigenvalues --   -0.98397  -0.98105  -0.85885  -0.85304  -0.79790
  Beta  occ. eigenvalues --   -0.76736  -0.76047  -0.76030  -0.70412  -0.69952
  Beta  occ. eigenvalues --   -0.69644  -0.66359  -0.63320  -0.60586  -0.58361
  Beta  occ. eigenvalues --   -0.58080  -0.54839  -0.50272  -0.50179  -0.47790
  Beta  occ. eigenvalues --   -0.45379  -0.44302  -0.43875  -0.43232  -0.43060
  Beta  occ. eigenvalues --   -0.41996  -0.41460  -0.40833  -0.39953  -0.39935
  Beta  occ. eigenvalues --   -0.39730  -0.39681  -0.39670  -0.38376  -0.38373
  Beta  occ. eigenvalues --   -0.37358  -0.36966  -0.35475  -0.34972  -0.34215
  Beta  occ. eigenvalues --   -0.33381  -0.33307  -0.32249  -0.30676  -0.24542
  Beta  occ. eigenvalues --   -0.23669  -0.23627  -0.23492  -0.22735  -0.22659
  Beta virt. eigenvalues --   -0.07816  -0.03753  -0.00588  -0.00369  -0.00177
  Beta virt. eigenvalues --    0.00320   0.01018   0.01428   0.01749   0.03318
  Beta virt. eigenvalues --    0.03549   0.03551   0.03668   0.03740   0.04546

 Mulliken charges and spin densities:
               1          2
     1  C   -0.233916   0.027561
     2  C    0.340471   0.034663
     3  C    0.341213   0.034616
     4  C   -0.234118   0.027578
     5  C    0.139925   0.036218
     6  C    0.140212   0.036246
     7  C   -0.759022   0.102652
     8  C    0.139919   0.036216
     9  C    0.140208   0.036244
    10  C   -0.759022   0.102652
    11  C   -0.234121   0.027579
    12  C    0.341217   0.034615
    13  C    0.340475   0.034662
    14  C   -0.233919   0.027561
    15  O   -0.467616   0.203535
    16  O   -0.467616   0.203534
    17  C   -0.492965  -0.003362
    18  C   -0.493025  -0.003363
    19  C   -0.493024  -0.003363
    20  C   -0.492965  -0.003362
    21  H    0.128958  -0.001982
    22  H    0.128934  -0.001980
    23  H    0.128934  -0.001980
    24  H    0.128958  -0.001982
    25  H    0.165864   0.000111
    26  H    0.157385   0.001852
    27  H    0.157243   0.001846
    28  H    0.157280   0.001847
    29  H    0.157365   0.001853
    30  H    0.165816   0.000111
    31  H    0.165815   0.000111
    32  H    0.157372   0.001853
    33  H    0.157273   0.001847
    34  H    0.157230   0.001846
    35  H    0.157398   0.001852
    36  H    0.165864   0.000111
 Sum of Mulliken charges =  -1.00000   1.00000

 Dipole moment (field-independent basis, Debye):
    X=            -19.6901    Y=              7.8146    Z=             -1.5694  Tot=             21.2422
 Quadrupole moment (field-independent basis, Debye-Ang):
   XX=           -203.2800   YY=           -150.8323   ZZ=           -126.4250
   XY=             51.9731   XZ=            -21.4331   YZ=              7.9747

  Exact polarizability: 503.238  32.489 351.998 -90.597-134.644 292.484
 Approx polarizability: 519.784   2.822 394.632 -66.665-139.221 318.841

                      1                      2                      3
                      A                      A                      A
 Frequencies --     37.4527                64.9180                89.9890
 Red. masses --      4.9511                 3.1851                 4.3860
 Frc consts  --      0.0041                 0.0079                 0.0209
 IR Inten    --     14.5279                 0.0114                 0.0000

                      4                      5                      6
                      A                      A                      A
 Frequencies --    129.6146               133.4804               138.4814
 Red. masses --      5.7102                 2.7968                 1.0506
 Frc consts  --      0.0565                 0.0294                 0.0119
 IR Inten    --      4.4674                 0.0000                 0.0038

                      7                      8                      9
                      A                      A                      A
 Frequencies --    139.6250               144.4449               179.2101
 Red. masses --      1.0464                 3.9221                 1.1022
 Frc consts  --      0.0120                 0.0482                 0.0209
 IR Inten    --      0.0000                10.7683                 2.2342

                     10                     11                     12
                      A                      A                      A
 Frequencies --    186.8278               230.3687               233.5255
 Red. masses --      1.1677                 5.0459                 3.2843
 Frc consts  --      0.0240                 0.1578                 0.1055
 IR Inten    --      0.0000                 0.0000                 0.0023

                     13                     14                     15
                      A                      A                      A
 Frequencies --    238.3209               275.1590               292.8450
 Red. masses --      3.8356                 3.2341                 3.8834
 Frc consts  --      0.1284                 0.1443                 0.1962
 IR Inten    --      0.0000                 0.0000                16.1827

                     16                     17                     18
                      A                      A                      A
 Frequencies --    298.3257               325.0477               355.5070
 Red. masses --      2.5806                 3.7097                 6.2464
 Frc consts  --      0.1353                 0.2309                 0.4651
 IR Inten    --      6.9043                 0.0000                 0.0000

                     19                     20                     21
                      A                      A                      A
 Frequencies --    360.4902               363.4047               387.4155
 Red. masses --      4.1768                 9.9915                 3.7975
 Frc consts  --      0.3198                 0.7774                 0.3358
 IR Inten    --      0.0000                21.7024                14.2822

                     22                     23                     24
                      A                      A                      A
 Frequencies --    436.5851               470.5993               485.6468
 Red. masses --      2.9963                 3.1453                 6.8713
 Frc consts  --      0.3365                 0.4104                 0.9548
 IR Inten    --     14.8023                 0.0000                 0.0000

                     25                     26                     27
                      A                      A                      A
 Frequencies --    487.0942               494.6924               562.0084
 Red. masses --     12.3503                 3.4257                 3.5087
 Frc consts  --      1.7264                 0.4939                 0.6530
 IR Inten    --      0.0000                 0.0000                14.9550

                     28                     29                     30
                      A                      A                      A
 Frequencies --    596.1968               598.3807               601.4258
 Red. masses --      4.6001                 6.3268                 5.5616
 Frc consts  --      0.9634                 1.3347                 1.1853
 IR Inten    --      0.0100                20.0370                 0.0000

                     31                     32                     33
                      A                      A                      A
 Frequencies --    672.6679               716.0821               721.4413
 Red. masses --      3.7831                 6.8074                 6.0016
 Frc consts  --      1.0086                 2.0566                 1.8404
 IR Inten    --      0.0000                 0.0000                27.0933

                     34                     35                     36
                      A                      A                      A
 Frequencies --    726.2491               729.6402               745.5958
 Red. masses --      3.8616                 5.7533                 4.9694
 Frc consts  --      1.2000                 1.8046                 1.6277
 IR Inten    --      0.4892                31.7399                20.0923

                     37                     38                     39
                      A                      A                      A
 Frequencies --    767.6519               792.1898               802.5153
 Red. masses --      3.6293                 6.0072                 5.0306
 Frc consts  --      1.2601                 2.2212                 1.9089
 IR Inten    --      0.0000                 0.0000                 0.0000

                     40                     41                     42
                      A                      A                      A
 Frequencies --    913.9472               915.6112               920.1623
 Red. masses --      1.3483                 1.3348                 1.3830
 Frc consts  --      0.6636                 0.6593                 0.6899
 IR Inten    --      0.0000                 4.2789                 0.0000

                     43                     44                     45
                      A                      A                      A
 Frequencies --    922.5386               967.6718              1010.5623
 Red. masses --      1.4189                 2.2177                 1.3943
 Frc consts  --      0.7115                 1.2235                 0.8390
 IR Inten    --     48.2047                52.3289                 0.0000

                     46                     47                     48
                      A                      A                      A
 Frequencies --   1018.6757              1026.9799              1028.8436
 Red. masses --      2.2910                 1.6764                 1.5325
 Frc consts  --      1.4007                 1.0417                 0.9557
 IR Inten    --      9.2441                16.1951                 0.0000

                     49                     50                     51
                      A                      A                      A
 Frequencies --   1045.9736              1046.5183              1047.2683
 Red. masses --      1.4470                 1.4565                 2.5853
 Frc consts  --      0.9327                 0.9398                 1.6706
 IR Inten    --      0.0000                24.8283                 0.9026

                     52                     53                     54
                      A                      A                      A
 Frequencies --   1065.3111              1065.4430              1152.7857
 Red. masses --      1.6018                 1.6036                 5.8169
 Frc consts  --      1.0711                 1.0725                 4.5545
 IR Inten    --      0.0000                 0.0038                 0.0000

                     55                     56                     57
                      A                      A                      A
 Frequencies --   1164.4162              1186.1414              1199.1335
 Red. masses --      1.5826                 2.4253                 5.4272
 Frc consts  --      1.2643                 2.0104                 4.5980
 IR Inten    --      0.0000                 9.7874               163.6424

                     58                     59                     60
                      A                      A                      A
 Frequencies --   1220.4635              1246.3759              1258.5360
 Red. masses --      2.8689                 4.9488                 1.4268
 Frc consts  --      2.5178                 4.5295                 1.3315
 IR Inten    --      0.0000                 4.8439               171.0724

                     61                     62                     63
                      A                      A                      A
 Frequencies --   1259.1216              1274.8820              1359.1668
 Red. masses --      5.9429                 1.7190                 6.4949
 Frc consts  --      5.5512                 1.6462                 7.0691
 IR Inten    --      0.0000                 0.0000                 0.0000

                     64                     65                     66
                      A                      A                      A
 Frequencies --   1365.3275              1377.1938              1404.3508
 Red. masses --      7.0017                 3.3210                 1.2585
 Frc consts  --      7.6901                 3.7112                 1.4624
 IR Inten    --      0.3144               946.3593                 0.0000

                     67                     68                     69
                      A                      A                      A
 Frequencies --   1408.5471              1411.2096              1412.1807
 Red. masses --      1.4476                 1.2311                 1.2434
 Frc consts  --      1.6922                 1.4446                 1.4609
 IR Inten    --     58.3239                 9.7560                 0.0000

                     70                     71                     72
                      A                      A                      A
 Frequencies --   1458.8545              1467.3149              1468.3285
 Red. masses --      2.1716                 1.9540                 1.0447
 Frc consts  --      2.7231                 2.4786                 1.3270
 IR Inten    --      0.0000               804.2944                 0.0003

                     73                     74                     75
                      A                      A                      A
 Frequencies --   1468.3455              1478.5153              1480.2132
 Red. masses --      1.0462                 1.5076                 1.0431
 Frc consts  --      1.3290                 1.9417                 1.3466
 IR Inten    --      2.6746                 0.0001                 0.5413

                     76                     77                     78
                      A                      A                      A
 Frequencies --   1480.2189              1482.4682              1484.8185
 Red. masses --      1.0431                 1.3110                 2.6871
 Frc consts  --      1.3465                 1.6975                 3.4905
 IR Inten    --     48.1509                 4.4940               240.2220

                     79                     80                     81
                      A                      A                      A
 Frequencies --   1492.6569              1496.0270              1496.4084
 Red. masses --      1.6885                 1.9768                 3.9403
 Frc consts  --      2.2165                 2.6067                 5.1986
 IR Inten    --      0.0000               945.9082                 0.0000

                     82                     83                     84
                      A                      A                      A
 Frequencies --   1513.7521              1536.3163              1599.2991
 Red. masses --      2.6059                 4.3100                 8.8841
 Frc consts  --      3.5182                 5.9936                13.3882
 IR Inten    --      0.0000                65.6279                 0.0000

                     85                     86                     87
                      A                      A                      A
 Frequencies --   1634.5820              1645.9087              3013.6659
 Red. masses --      6.2026                 6.7451                 1.0387
 Frc consts  --      9.7641                10.7659                 5.5583
 IR Inten    --      0.0000                 4.0922                24.1520

                     88                     89                     90
                      A                      A                      A
 Frequencies --   3013.6929              3014.6627              3015.0567
 Red. masses --      1.0387                 1.0380                 1.0380
 Frc consts  --      5.5584                 5.5579                 5.5594
 IR Inten    --      0.0175               337.9000                 0.0004

                     91                     92                     93
                      A                      A                      A
 Frequencies --   3055.7215              3055.7301              3056.0709
 Red. masses --      1.0996                 1.0996                 1.0997
 Frc consts  --      6.0494                 6.0494                 6.0512
 IR Inten    --      2.7657               106.0661                 0.7395

                     94                     95                     96
                      A                      A                      A
 Frequencies --   3056.0739              3100.5312              3100.5356
 Red. masses --      1.0997                 1.0995                 1.0995
 Frc consts  --      6.0512                 6.2274                 6.2274
 IR Inten    --     18.3966                 1.7562               134.6905

                     97                     98                     99
                      A                      A                      A
 Frequencies --   3101.7834              3101.7927              3171.6452
 Red. masses --      1.0992                 1.0992                 1.0888
 Frc consts  --      6.2308                 6.2308                 6.4528
 IR Inten    --      6.4971                 0.0195                 0.0001

                    100                    101                    102
                      A                      A                      A
 Frequencies --   3171.8995              3173.4672              3174.2710
 Red. masses --      1.0890                 1.0890                 1.0893
 Frc consts  --      6.4551                 6.4617                 6.4667
 IR Inten    --     38.4098                45.2272                 0.0000

 - Thermochemistry -
 -------------------
 Temperature   298.150 Kelvin.  Pressure   1.00000 Atm.
 Atom     1 has atomic number  6 and mass  12.00000

 Molecular mass:   264.11503 amu.
 Principal axes and moments of inertia in atomic units:
                           1         2         3
     Eigenvalues --  2177.111319288.59302**********
           X            0.79885  -0.57895   0.16329
           Y            0.39685   0.71123   0.58022
           Z           -0.45205  -0.39871   0.79792
 This molecule is an asymmetric top.
 Rotational symmetry number  1.
 Warning -- assumption of classical behavior for rotation
           may cause significant error
 Rotational temperatures (Kelvin)      0.03978     0.00932     0.00758
 Rotational constants (GHZ):           0.82896     0.19430     0.15802
 Zero-point vibrational energy     752254.2 (Joules/Mol)
                                  179.79307 (Kcal/Mol)
 Warning -- explicit consideration of  30 degrees of freedom as
           vibrations may cause significant error
 Vibrational temperatures:     53.89    93.40   129.47   186.49   192.05
          (Kelvin)            199.24   200.89   207.82   257.84   268.80
                              331.45   335.99   342.89   395.89   421.34
                              429.22   467.67   511.50   518.67   522.86
                              557.40   628.15   677.09   698.74   700.82
                              711.75   808.60   857.79   860.94   865.32
                              967.82  1030.28  1037.99  1044.91  1049.79
                             1072.75  1104.48  1139.78  1154.64  1314.97
                             1317.36  1323.91  1327.33  1392.26  1453.97
                             1465.65  1477.60  1480.28  1504.92  1505.71
                             1506.79  1532.75  1532.93  1658.60  1675.34
                             1706.59  1725.29  1755.97  1793.26  1810.75
                             1811.60  1834.27  1955.54  1964.40  1981.47
                             2020.55  2026.59  2030.42  2031.81  2098.97
                             2111.14  2112.60  2112.62  2127.25  2129.70
                             2129.70  2132.94  2136.32  2147.60  2152.45
                             2153.00  2177.95  2210.42  2301.03  2351.80
                             2368.10  4335.99  4336.03  4337.43  4337.99
                             4396.50  4396.51  4397.00  4397.01  4460.97
                             4460.98  4462.77  4462.79  4563.29  4563.66
                             4565.91  4567.07

 Zero-point correction=                           0.286519 (Hartree/Particle)
 Thermal correction to Energy=                    0.304442
 Thermal correction to Enthalpy=                  0.305386
 Thermal correction to Gibbs Free Energy=         0.240997
 Sum of electronic and zero-point Energies=           -846.117167
 Sum of electronic and thermal Energies=              -846.099243
 Sum of electronic and thermal Enthalpies=            -846.098299
 Sum of electronic and thermal Free Energies=         -846.162688

                     E (Thermal)             CV                S
                      KCal/Mol        Cal/Mol-Kelvin    Cal/Mol-Kelvin
 Total                  191.040             70.057            135.518
 Electronic               0.000              0.000              1.377
 Translational            0.889              2.981             42.613
 Rotational               0.889              2.981             33.801
 Vibrational            189.263             64.096             57.727
 Vibration     1          0.594              1.982              5.389
 Vibration     2          0.597              1.971              4.302
 Vibration     3          0.602              1.956              3.660
 Vibration     4          0.612              1.924              2.952
 Vibration     5          0.613              1.920              2.895
 Vibration     6          0.614              1.915              2.825
 Vibration     7          0.615              1.914              2.809
 Vibration     8          0.616              1.909              2.744
 Vibration     9          0.629              1.868              2.337
 Vibration    10          0.632              1.858              2.259
 Vibration    11          0.652              1.795              1.876
 Vibration    12          0.654              1.790              1.852
 Vibration    13          0.656              1.782              1.815
 Vibration    14          0.677              1.719              1.564
 Vibration    15          0.688              1.687              1.457
 Vibration    16          0.691              1.677              1.426
 Vibration    17          0.709              1.625              1.285
 Vibration    18          0.731              1.564              1.142
 Vibration    19          0.735              1.554              1.120
 Vibration    20          0.737              1.548              1.108
 Vibration    21          0.756              1.497              1.010
 Vibration    22          0.797              1.390              0.837
 Vibration    23          0.828              1.315              0.736
 Vibration    24          0.842              1.282              0.695
 Vibration    25          0.843              1.279              0.691
 Vibration    26          0.850              1.262              0.672
 Vibration    27          0.918              1.113              0.520
 Vibration    28          0.954              1.040              0.456
 Vibration    29          0.956              1.035              0.452
 Vibration    30          0.960              1.029              0.447

 Optimization completed.
    -- Stationary point found.
 Normal termination of Gaussian 16 at Sat Feb 10 19:29:55 2024.
