 Q-Chem 5.4, Q-Chem, Inc., Pleasanton, CA (2021)
 Q-Chem 5.4.0 for Intel X86 EM64T Linux

User input:
--------------------------------------------------------------
$molecule
-1 2
C                  4.2457350000     -0.0072970000     -0.1586980000
S                  3.0293190000     -1.3583070000     -0.3064560000
C                  1.4796860000     -0.4843410000     -0.1286770000
C                  1.3604550000      0.8779040000      0.0680930000
C                  0.0941270000      1.5441030000      0.2064850000
O                  0.0040640000      2.7876840000      0.3856630000
C                 -1.0995050000      0.6816870000      0.1260630000
C                 -2.3823860000      1.2465110000      0.2504940000
C                 -3.5189900000      0.4599410000      0.1785960000
C                 -3.3980590000     -0.9294010000     -0.0221880000
C                 -2.1461210000     -1.5040210000     -0.1468590000
C                 -0.9767860000     -0.7191160000     -0.0763290000
C                  0.3349100000     -1.3658390000     -0.2133760000
O                  0.4631420000     -2.6057910000     -0.3931010000
H                  4.1259870000      0.7352760000     -0.9503080000
H                  5.2251440000     -0.4789950000     -0.2606060000
H                  4.1893110000      0.4855000000      0.8141230000
H                  2.2277870000      1.5240550000      0.1292120000
H                 -2.4422260000      2.3181780000      0.4041810000
H                 -4.5021830000      0.9110090000      0.2764900000
H                 -4.2887060000     -1.5486730000     -0.0789930000
H                 -2.0247060000     -2.5700690000     -0.3019450000
$end
$rem
MAX_SCF_CYCLES=200
BASIS  =  6-311++G(d,p)
GUI  =  2
JOB_TYPE  =  SP
METHOD  =  B3LYP
SOLVENT_METHOD = PCM
$end
$pcm
theory = CPCM
$end
$solvent
dielectric 37.219
opticaldielectric 1.43
$end

--------------------------------------------------------------

             Standard Nuclear Orientation (Angstroms)
    I     Atom           X                Y                Z
 ----------------------------------------------------------------
    1      C       4.2457350000    -0.0072970000    -0.1586980000
    2      S       3.0293190000    -1.3583070000    -0.3064560000
    3      C       1.4796860000    -0.4843410000    -0.1286770000
    4      C       1.3604550000     0.8779040000     0.0680930000
    5      C       0.0941270000     1.5441030000     0.2064850000
    6      O       0.0040640000     2.7876840000     0.3856630000
    7      C      -1.0995050000     0.6816870000     0.1260630000
    8      C      -2.3823860000     1.2465110000     0.2504940000
    9      C      -3.5189900000     0.4599410000     0.1785960000
   10      C      -3.3980590000    -0.9294010000    -0.0221880000
   11      C      -2.1461210000    -1.5040210000    -0.1468590000
   12      C      -0.9767860000    -0.7191160000    -0.0763290000
   13      C       0.3349100000    -1.3658390000    -0.2133760000
   14      O       0.4631420000    -2.6057910000    -0.3931010000
   15      H       4.1259870000     0.7352760000    -0.9503080000
   16      H       5.2251440000    -0.4789950000    -0.2606060000
   17      H       4.1893110000     0.4855000000     0.8141230000
   18      H       2.2277870000     1.5240550000     0.1292120000
   19      H      -2.4422260000     2.3181780000     0.4041810000
   20      H      -4.5021830000     0.9110090000     0.2764900000
   21      H      -4.2887060000    -1.5486730000    -0.0789930000
   22      H      -2.0247060000    -2.5700690000    -0.3019450000
 ----------------------------------------------------------------

    9    -972.9590418009      6.81e-06  Convergence criterion met
 Total energy in the final basis set =     -972.9590418009

                    Orbital Energies (a.u.)
 --------------------------------------------------------------

 Alpha MOs
 -- Occupied --
-88.8510 -19.0824 -19.0785 -10.2280 -10.2261 -10.2004 -10.1880 -10.1760
-10.1742 -10.1731 -10.1726 -10.1708 -10.1705 -10.1631  -7.9364  -5.9000
 -5.8962  -5.8911  -1.0087  -1.0023  -0.8601  -0.8255  -0.7771  -0.7516
 -0.7332  -0.6874  -0.6452  -0.6178  -0.5885  -0.5580  -0.5106  -0.4977
 -0.4706  -0.4566  -0.4311  -0.4295  -0.4266  -0.4192  -0.4167  -0.4056
 -0.3937  -0.3831  -0.3792  -0.3559  -0.3490  -0.3412  -0.3267  -0.2995
 -0.2628  -0.2582  -0.2513  -0.2416  -0.2242  -0.1539

 Beta MOs
 -- Occupied --
-88.8509 -19.0765 -19.0729 -10.2258 -10.2246 -10.1987 -10.1880 -10.1757
-10.1735 -10.1729 -10.1721 -10.1705 -10.1705 -10.1620  -7.9362  -5.9000
 -5.8961  -5.8905  -0.9981  -0.9925  -0.8578  -0.8219  -0.7747  -0.7497
 -0.7315  -0.6802  -0.6419  -0.6159  -0.5860  -0.5553  -0.5083  -0.4949
 -0.4678  -0.4558  -0.4303  -0.4258  -0.4255  -0.4142  -0.4051  -0.4025
 -0.3912  -0.3782  -0.3583  -0.3481  -0.3475  -0.3404  -0.3254  -0.2829
 -0.2520  -0.2493  -0.2459  -0.2365  -0.2157

          Ground-State Mulliken Net Atomic Charges

     Atom                 Charge (a.u.)    Spin (a.u.)
  --------------------------------------------------------
      1 C                    -0.516806       0.001452
      2 S                    -0.622583       0.031906
      3 C                     0.943461       0.104113
      4 C                     0.530917       0.077379
      5 C                    -0.424574       0.089817
      6 O                    -0.507985       0.200644
      7 C                     0.407432       0.051140
      8 C                     0.204684       0.016972
      9 C                    -0.407114       0.041675
     10 C                    -0.439255       0.011495
     11 C                     0.306036       0.051305
     12 C                    -0.031067      -0.015327
     13 C                    -1.550221       0.128225
     14 O                    -0.448944       0.225384
     15 H                     0.197947       0.000278
     16 H                     0.208136      -0.000213
     17 H                     0.198100       0.000295
     18 H                     0.211820      -0.007471
     19 H                     0.166911      -0.001522
     20 H                     0.200947      -0.003059
     21 H                     0.197356      -0.001254
     22 H                     0.174803      -0.003234
  --------------------------------------------------------
  Sum of atomic charges =    -1.000000

                    Cartesian Multipole Moments
 -----------------------------------------------------------------
    Charge (ESU x 10^10)
                -4.8032
    Dipole Moment (Debye)
         X      -0.7340      Y       1.0903      Z       0.2178
       Tot       1.3323
    Quadrupole Moments (Debye-Ang)
        XX     -79.9976     XY       9.4031     YY    -131.6133
        XZ       0.7846     YZ      -5.4092     ZZ     -96.4761

 Total job time:  43.46s(wall), 262.55s(cpu)
        *  Thank you very much for using Q-Chem.  Have a nice day.  *
