 Q-Chem 5.4, Q-Chem, Inc., Pleasanton, CA (2021)
 Q-Chem 5.4.0 for Intel X86 EM64T Linux

User input:
--------------------------------------------------------------
$molecule
0 1
C                  4.9040900000     -1.2250550000     -0.0226950000
C                  3.5337900000     -1.0406420000     -0.6000080000
O                  3.2534540000     -0.6938800000     -1.7112030000
O                  2.5746560000     -1.3467540000      0.3505380000
C                  1.2523370000     -1.0581010000      0.0758220000
C                  0.4226530000     -2.1454920000     -0.1779180000
C                 -0.9295120000     -1.9515980000     -0.3929180000
C                 -1.4657690000     -0.6686250000     -0.3538240000
O                 -2.8098370000     -0.5563930000     -0.6511240000
C                 -3.6958050000     -0.2686000000      0.3730960000
C                 -5.0525300000      0.0255550000     -0.1906900000
O                 -3.3741290000     -0.2779200000      1.5264050000
C                 -0.6524990000      0.4461160000     -0.0993340000
C                 -1.2217680000      1.8309910000     -0.0759580000
O                 -2.4024060000      2.0749570000     -0.2691220000
C                 -0.2966400000      2.9507160000      0.2014450000
C                  1.0031770000      2.7600100000      0.4426410000
C                  1.6237950000      1.4181430000      0.4146910000
O                  2.8221950000      1.3176620000      0.6256920000
C                  0.7383820000      0.2467720000      0.1209590000
H                  5.6408110000     -1.2157570000     -0.8232470000
H                  5.0939720000     -0.3954520000      0.6628680000
H                  4.9643710000     -2.1534230000      0.5471700000
H                  0.8580420000     -3.1366170000     -0.2005220000
H                 -1.5906060000     -2.7847480000     -0.5959380000
H                 -5.3156370000     -0.6942480000     -0.9671510000
H                 -5.0181960000      1.0175700000     -0.6478940000
H                 -5.7893990000      0.0155960000      0.6097170000
H                 -0.7548880000      3.9334170000      0.2081750000
H                  1.6838970000      3.5758000000      0.6590690000
$end
$rem
MAX_SCF_CYCLES=200
BASIS  =  6-311++G(d,p)
GUI  =  2
JOB_TYPE  =  SP
METHOD  =  B3LYP
SOLVENT_METHOD = COSMO
$end
$solvent
dielectric 37.219
opticaldielectric 1.43
$end

--------------------------------------------------------------

             Standard Nuclear Orientation (Angstroms)
    I     Atom           X                Y                Z
 ----------------------------------------------------------------
    1      C      -5.0093803459     0.6823315251     0.2926208558
    2      C      -3.6518763116     0.7377472749    -0.3391484345
    3      O      -3.3788167237     0.5658303645    -1.4921746800
    4      O      -2.6969463110     1.0399492198     0.6168656674
    5      C      -1.3623409126     0.9499301573     0.2732932998
    6      C      -0.6772082877     2.1529187828     0.1369468017
    7      C       0.6783492306     2.1525860662    -0.1362450253
    8      C       1.3626558313     0.9492340167    -0.2733141719
    9      O       2.6972007573     1.0383989216    -0.6176128226
   10      C       3.6522869546     0.7376877432     0.3385115726
   11      C       5.0097613574     0.6817007912    -0.2933216731
   12      O       3.3795558947     0.5670415431     1.4918465648
   13      C       0.6970511318    -0.2787912278    -0.1401033129
   14      C       1.4254273356    -1.5765898723    -0.3064739277
   15      O       2.6175684523    -1.6497689663    -0.5598159993
   16      C       0.6503632678    -2.8259227529    -0.1482293051
   17      C      -0.6517989382    -2.8255605630     0.1491626589
   18      C      -1.4262651312    -1.5758133371     0.3069249399
   19      O      -2.6184516913    -1.6483105485     0.5603332539
   20      C      -0.6973431595    -0.2784438628     0.1400420636
   21      H      -5.7722847940     0.6812535812    -0.4830745938
   22      H      -5.0721431550    -0.2416029986     0.8728783540
   23      H      -5.1546815554     1.5199652413     0.9763637728
   24      H      -1.2264916436     3.0790398138     0.2509245134
   25      H       1.2281370741     3.0784444797    -0.2499149202
   26      H       5.1543225156     1.5174712467    -0.9794872173
   27      H       5.0732979495    -0.2438794581    -0.8708789300
   28      H       5.7727290857     0.6834655427     0.4823094259
   29      H       1.2206848177    -3.7390292071    -0.2774876163
   30      H      -1.2225454563    -3.7383409647     0.2788332883
 ----------------------------------------------------------------

    9    -991.1359025544      5.27e-06  Convergence criterion met
 Total energy in the final basis set =     -991.1359025544
    5    -991.1595939249      4.50e-06  Convergence criterion met
 Total energy in the final basis set =     -991.1595939249

                    Orbital Energies (a.u.)
 --------------------------------------------------------------

 Alpha MOs
 -- Occupied --
-19.1922 -19.1922 -19.1430 -19.1430 -19.1387 -19.1386 -10.3288 -10.3288
-10.2949 -10.2949 -10.2735 -10.2735 -10.2289 -10.2285 -10.2135 -10.2126
-10.2100 -10.2094 -10.1813 -10.1813  -1.1371  -1.1367  -1.0777  -1.0760
 -1.0571  -1.0566  -0.9032  -0.8489  -0.8091  -0.7928  -0.7716  -0.7477
 -0.7123  -0.6784  -0.6666  -0.6417  -0.6199  -0.5594  -0.5520  -0.5472
 -0.5221  -0.5145  -0.5078  -0.5067  -0.5036  -0.4962  -0.4886  -0.4658
 -0.4656  -0.4600  -0.4590  -0.4370  -0.4349  -0.4301  -0.4284  -0.4206
 -0.4118  -0.4086  -0.3997  -0.3931  -0.3927  -0.3797  -0.3487  -0.3455
 -0.3134  -0.3104  -0.3093  -0.2946  -0.2943  -0.2813  -0.2748

          Ground-State Mulliken Net Atomic Charges

     Atom                 Charge (a.u.)
  ----------------------------------------
      1 C                    -0.522896
      2 C                     0.062713
      3 O                    -0.272657
      4 O                    -0.007777
      5 C                    -0.303424
      6 C                     0.046479
      7 C                     0.047676
      8 C                    -0.303362
      9 O                    -0.007478
     10 C                     0.062407
     11 C                    -0.523203
     12 O                    -0.272573
     13 C                     0.441985
     14 C                    -0.184499
     15 O                    -0.284947
     16 C                    -0.088713
     17 C                    -0.088792
     18 C                    -0.184478
     19 O                    -0.284984
     20 C                     0.442544
     21 H                     0.185393
     22 H                     0.211258
     23 H                     0.196988
     24 H                     0.260810
     25 H                     0.260769
     26 H                     0.197000
     27 H                     0.211288
     28 H                     0.185389
     29 H                     0.258541
     30 H                     0.258543
  ----------------------------------------
  Sum of atomic charges =     0.000000

                    Cartesian Multipole Moments
 -----------------------------------------------------------------
    Charge (ESU x 10^10)
                -0.0000
    Dipole Moment (Debye)
         X      -0.0020      Y       1.9827      Z       0.0010
       Tot       1.9827
    Quadrupole Moments (Debye-Ang)
        XX    -105.3040     XY       0.0015     YY     -93.4062
        XZ     -13.3351     YZ      -0.0079     ZZ    -126.5289

 Total job time:  66.98s(wall), 490.09s(cpu)
        *  Thank you very much for using Q-Chem.  Have a nice day.  *
