 Q-Chem 5.4, Q-Chem, Inc., Pleasanton, CA (2021)
 Q-Chem 5.4.0 for Intel X86 EM64T Linux

User input:
--------------------------------------------------------------
$molecule
0 1
C                 -4.4041840000     -0.3459880000      0.1959550000
C                 -2.9267290000     -0.6319200000      0.2406410000
C                 -2.4538140000     -1.9187660000      0.4308180000
C                 -1.0875500000     -2.2069810000      0.4788550000
C                 -0.1645370000     -1.1845970000      0.3316340000
C                  1.2835460000     -1.5447870000      0.3893280000
O                  1.6462460000     -2.6983560000      0.5634850000
C                  2.2723930000     -0.4452790000      0.2260120000
C                  3.6393880000     -0.7373630000      0.2731400000
C                  4.5749680000      0.2781940000      0.1214010000
C                  4.1504600000      1.5951400000     -0.0790200000
C                  2.7938930000      1.8926090000     -0.1269320000
C                  1.8445610000      0.8761590000      0.0250700000
C                  0.3941080000      1.2293190000     -0.0300110000
O                  0.0738920000      2.4101050000     -0.2106460000
C                 -0.5926740000      0.1546560000      0.1325500000
C                 -1.9919120000      0.4351160000      0.0882760000
N                 -2.4526780000      1.7012490000     -0.0881320000
H                 -4.7046740000      0.0925630000     -0.7634220000
H                 -4.7055510000      0.3537170000      0.9846380000
H                 -4.9798520000     -1.2621390000      0.3313740000
H                 -3.1705100000     -2.7255050000      0.5466080000
H                 -0.7300770000     -3.2169420000      0.6291490000
H                  3.9414050000     -1.7655800000      0.4293140000
H                  5.6340100000      0.0491710000      0.1583690000
H                  4.8809890000      2.3875220000     -0.1974330000
H                  2.4449990000      2.9057780000     -0.2808910000
H                 -3.4369510000      1.8820540000     -0.1669430000
H                 -1.7731650000      2.4408500000     -0.2217580000
$end
$rem
MAX_SCF_CYCLES=200
BASIS  =  6-311++G(d,p)
GUI  =  2
JOB_TYPE  =  SP
METHOD  =  B3LYP
SOLVENT_METHOD = COSMO
$end
$solvent
dielectric 37.219
opticaldielectric 1.43
$end

--------------------------------------------------------------

             Standard Nuclear Orientation (Angstroms)
    I     Atom           X                Y                Z
 ----------------------------------------------------------------
    1      C       4.6813285977    -0.2607649839    -0.0013835477
    2      C       3.2500799548     0.2063044023    -0.0022409142
    3      C       2.9390116539     1.5550131992    -0.0053408443
    4      C       1.6184567527     2.0112829581    -0.0030133433
    5      C       0.5765788589     1.0983910563     0.0008459910
    6      C      -0.8163468407     1.6366908194     0.0019272940
    7      O      -1.0343583573     2.8388028868     0.0028991136
    8      C      -1.9331342000     0.6537392754     0.0011504153
    9      C      -3.2539625632     1.1137622589     0.0020053925
   10      C      -4.3075633432     0.2084372451     0.0003632826
   11      C      -4.0483391489    -1.1654324975    -0.0023076278
   12      C      -2.7385236042    -1.6295875377    -0.0031611846
   13      C      -1.6711610988    -0.7250210595    -0.0013652583
   14      C      -0.2749926352    -1.2563243719    -0.0008974556
   15      O      -0.1025375820    -2.4809346506    -0.0043307711
   16      C       0.8367353538    -0.2976207976     0.0028029504
   17      C       2.1910154922    -0.7497382495     0.0031120355
   18      N       2.4927466435    -2.0746119612     0.0167437404
   19      H       4.9111700695    -0.8688631784    -0.8847945117
   20      H       4.9087806558    -0.8683465308     0.8826641068
   21      H       5.3654368304     0.5883877169    -0.0018560879
   22      H       3.7495815052     2.2767146378    -0.0087823878
   23      H       1.3879215784     3.0682825214    -0.0043954800
   24      H      -3.4271565377     2.1827969903     0.0038427904
   25      H      -5.3305011742     0.5675831991     0.0010724681
   26      H      -4.8709493620    -1.8717427943    -0.0036092800
   27      H      -2.5169499011    -2.6892307466    -0.0049454182
   28      H       3.4466127669    -2.3834771542    -0.0326189117
   29      H       1.7268952000    -2.7375571236    -0.0073133240
 ----------------------------------------------------------------

    9    -783.6663376832      3.21e-06  Convergence criterion met
 Total energy in the final basis set =     -783.6663376832
    5    -783.6826761045      4.56e-06  Convergence criterion met
 Total energy in the final basis set =     -783.6826761045

                    Orbital Energies (a.u.)
 --------------------------------------------------------------

 Alpha MOs
 -- Occupied --
-19.1254 -19.1241 -14.3317 -10.2779 -10.2769 -10.2440 -10.2040 -10.2023
-10.2003 -10.2002 -10.1983 -10.1936 -10.1931 -10.1925 -10.1918 -10.1899
-10.1830 -10.1736  -1.0613  -1.0577  -0.9436  -0.8862  -0.8647  -0.8135
 -0.7789  -0.7739  -0.7556  -0.7142  -0.6785  -0.6557  -0.6354  -0.6077
 -0.5861  -0.5722  -0.5459  -0.5250  -0.5067  -0.4990  -0.4729  -0.4690
 -0.4661  -0.4549  -0.4530  -0.4466  -0.4383  -0.4327  -0.4275  -0.4158
 -0.3982  -0.3877  -0.3860  -0.3756  -0.3682  -0.3662  -0.3622  -0.3328
 -0.2847  -0.2846  -0.2748  -0.2714  -0.2678  -0.2236

          Ground-State Mulliken Net Atomic Charges

     Atom                 Charge (a.u.)
  ----------------------------------------
      1 C                    -0.475797
      2 C                     0.697813
      3 C                    -0.837752
      4 C                    -0.117622
      5 C                     0.515873
      6 C                    -0.628977
      7 O                    -0.310096
      8 C                    -0.004123
      9 C                     0.187655
     10 C                    -0.458395
     11 C                    -0.510760
     12 C                     0.235838
     13 C                     0.092124
     14 C                    -0.401941
     15 O                    -0.338492
     16 C                     0.129883
     17 C                     0.201717
     18 N                    -0.462632
     19 H                     0.191245
     20 H                     0.190748
     21 H                     0.192627
     22 H                     0.188196
     23 H                     0.193149
     24 H                     0.195279
     25 H                     0.222983
     26 H                     0.223830
     27 H                     0.200630
     28 H                     0.328487
     29 H                     0.358510
  ----------------------------------------
  Sum of atomic charges =     0.000000

                    Cartesian Multipole Moments
 -----------------------------------------------------------------
    Charge (ESU x 10^10)
                 0.0000
    Dipole Moment (Debye)
         X       3.0749      Y      -2.4879      Z      -0.1366
       Tot       3.9577
    Quadrupole Moments (Debye-Ang)
        XX     -63.5547     XY       1.3906     YY    -113.0091
        XZ      -0.4184     YZ       0.3049     ZZ    -108.2725

 Total job time:  65.14s(wall), 490.20s(cpu)
        *  Thank you very much for using Q-Chem.  Have a nice day.  *
