 Gaussian 16, Revision A.03,
 Gaussian 16:  ES64L-G16RevA.03 25-Dec-2016

 ----------------------------------------------------------------
 #P UB3LYP/6-311++G(d,p) SCRF=(PCM,Solvent=n,n-DiMethylFormamide)
 ----------------------------------------------------------------

 ------------------
 Quinone PCM in DMF
 ------------------
 Symbolic Z-matrix:
 Charge =  0 Multiplicity = 1

                         Standard orientation:
 ---------------------------------------------------------------------
 Center     Atomic      Atomic             Coordinates (Angstroms)
 Number     Number       Type             X           Y           Z
 ---------------------------------------------------------------------
      1          6           0       -7.089723    4.084566   -0.216034
      2          6           0       -6.880590    4.643542   -1.472222
      3          6           0       -6.226444    3.907632   -2.462641
      4          6           0       -6.644101    2.785928    0.045924
      5          6           0       -5.985962    2.043268   -0.947092
      6          6           0       -5.778457    2.614223   -2.201752
      7          6           0       -6.857730    2.175705    1.366595
      8          6           0       -6.377583    0.777488    1.584106
      9          6           0       -5.762593    0.026632    0.634769
     10          6           0       -5.487413    0.646954   -0.681060
     11          8           0       -7.418268    2.734036    2.303374
     12          8           0       -4.861280    0.058129   -1.547567
     13          8           0       -6.625450    0.317548    2.821677
     14          1           0       -7.593070    4.635087    0.569304
     15          1           0       -7.225080    5.649607   -1.681453
     16          1           0       -6.064805    4.344802   -3.441472
     17          1           0       -5.267079    2.031560   -2.957766
     18          1           0       -7.090516    1.039018    3.288529
     19          6           0       -5.655479   -2.427874   -0.111148
     20          6           0       -6.904906   -2.384681   -0.739410
     21          6           0       -4.794790   -3.484198   -0.412449
     22          6           0       -5.163435   -4.459922   -1.338496
     23          6           0       -6.403931   -4.401900   -1.968573
     24          6           0       -7.277663   -3.359924   -1.660172
     25          1           0       -7.598143   -1.581708   -0.508634
     26          1           0       -3.840375   -3.544078    0.094304
     27          1           0       -4.477968   -5.269914   -1.563814
     28          1           0       -8.250802   -3.306573   -2.136158
     29          1           0       -6.689946   -5.160973   -2.688077
     30          6           0       -5.304948   -1.398785    0.966540
     31          1           0       -5.895716   -1.686925    1.840313
     32          7           0       -3.913750   -1.489446    1.430944
     33          6           0       -2.843296   -0.882375    0.633692
     34          6           0       -1.476227   -1.254079    1.209747
     35          6           0       -0.309917   -0.633957    0.432381
     36          6           0        1.065589   -1.001339    1.000405
     37          6           0        2.234526   -0.383547    0.224702
     38          6           0        3.610598   -0.746993    0.793829
     39          1           0       -3.863804   -1.159483    2.388122
     40          1           0       -2.923214    0.215766    0.581058
     41          1           0       -2.931666   -1.244868   -0.392262
     42          1           0       -1.381113   -2.345548    1.220869
     43          1           0       -1.424700   -0.930971    2.258635
     44          1           0       -0.416447    0.458430    0.423810
     45          1           0       -0.365025   -0.952046   -0.616442
     46          1           0        1.173521   -2.093591    1.008261
     47          1           0        1.120136   -0.683919    2.049948
     48          1           0        2.124697    0.708733    0.214645
     49          1           0        2.180994   -0.702872   -0.824180
     50          1           0        3.720378   -1.839201    0.804592
     51          1           0        3.663958   -0.427013    1.842640
     52          6           0        4.779728   -0.129694    0.017874
     53          6           0        6.155736   -0.489198    0.589717
     54          6           0        7.325015    0.128141   -0.185993
     55          6           0        8.700768   -0.228191    0.388469
     56          6           0        9.870288    0.388936   -0.387040
     57          6           0       11.245766    0.034775    0.189437
     58          6           0       12.415526    0.651746   -0.585874
     59          6           0       13.790767    0.299215   -0.008362
     60          6           0       14.961342    0.915708   -0.782845
     61          6           0       16.330806    0.558153   -0.197859
     62          1           0        4.668175    0.962373    0.004569
     63          1           0        4.728188   -0.452035   -1.030246
     64          1           0        6.267445   -1.581199    0.603455
     65          1           0        6.206974   -0.166479    1.637782
     66          1           0        7.211898    1.220007   -0.201806
     67          1           0        7.275413   -0.196528   -1.233508
     68          1           0        8.813915   -1.320017    0.404777
     69          1           0        8.750165    0.096897    1.435883
     70          1           0        9.756192    1.480664   -0.404829
     71          1           0        9.822105    0.062443   -1.434059
     72          1           0       11.359905   -1.056912    0.207549
     73          1           0       11.293818    0.361547    1.236375
     74          1           0       12.300800    1.743403   -0.604936
     75          1           0       12.368316    0.324036   -1.632581
     76          1           0       13.906725   -0.792430    0.010903
     77          1           0       13.839048    0.627023    1.038417
     78          1           0       14.846228    2.006396   -0.801985
     79          1           0       14.914255    0.587597   -1.828465
     80          1           0       16.421832    0.904769    0.836518
     81          1           0       17.142768    1.012660   -0.772502
     82          1           0       16.490250   -0.524862   -0.197575
 ---------------------------------------------------------------------

 SCF Done:  E(UB3LYP) =  -1565.50418524     A.U. after   16 cycles

 The electronic state is 1-A.
 Alpha  occ. eigenvalues --  -19.18383 -19.15345 -19.12992 -14.30665 -10.29709
 Alpha  occ. eigenvalues --  -10.28366 -10.27409 -10.22439 -10.21348 -10.21238
 Alpha  occ. eigenvalues --  -10.20788 -10.20428 -10.20247 -10.20051 -10.19985
 Alpha  occ. eigenvalues --  -10.18852 -10.18802 -10.17753 -10.17674 -10.17552
 Alpha  occ. eigenvalues --  -10.17511 -10.17206 -10.16255 -10.16180 -10.16161
 Alpha  occ. eigenvalues --  -10.16025 -10.15946 -10.15929 -10.15924 -10.15919
 Alpha  occ. eigenvalues --  -10.15914 -10.15908 -10.15902 -10.15895 -10.15888
 Alpha  occ. eigenvalues --  -10.15881 -10.15524  -1.11399  -1.07110  -1.06561
 Alpha  occ. eigenvalues --   -0.91922  -0.89523  -0.86073  -0.83983  -0.81492
 Alpha  occ. eigenvalues --   -0.80866  -0.79882  -0.79016  -0.78295  -0.77885
 Alpha  occ. eigenvalues --   -0.76569  -0.75763  -0.74980  -0.73692  -0.71552
 Alpha  occ. eigenvalues --   -0.70493  -0.68765  -0.67169  -0.65703  -0.64795
 Alpha  occ. eigenvalues --   -0.63214  -0.61825  -0.61042  -0.60906  -0.59642
 Alpha  occ. eigenvalues --   -0.58330  -0.58027  -0.57791  -0.57654  -0.57477
 Alpha  occ. eigenvalues --   -0.57018  -0.56946  -0.54690  -0.52483  -0.51784
 Alpha  occ. eigenvalues --   -0.50223  -0.49490  -0.48736  -0.48615  -0.48177
 Alpha  occ. eigenvalues --   -0.47711  -0.47137  -0.46972  -0.46292  -0.45980
 Alpha  occ. eigenvalues --   -0.45613  -0.45505  -0.44817  -0.44531  -0.43921
 Alpha  occ. eigenvalues --   -0.43395  -0.43344  -0.42787  -0.42725  -0.42272
 Alpha  occ. eigenvalues --   -0.42120  -0.41826  -0.41160  -0.41058  -0.40785
 Alpha  occ. eigenvalues --   -0.40343  -0.40061  -0.39332  -0.38531  -0.38305
 Alpha  occ. eigenvalues --   -0.38229  -0.37891  -0.37444  -0.37385  -0.36678
 Alpha  occ. eigenvalues --   -0.36268  -0.36007  -0.34848  -0.34761  -0.34686
 Alpha  occ. eigenvalues --   -0.34383  -0.34240  -0.33507  -0.33420  -0.32791
 Alpha  occ. eigenvalues --   -0.32645  -0.32378  -0.32181  -0.32178  -0.32017
 Alpha  occ. eigenvalues --   -0.31914  -0.31896  -0.31423  -0.30798  -0.29382
 Alpha  occ. eigenvalues --   -0.29121  -0.28545  -0.28272  -0.27111  -0.25998
 Alpha  occ. eigenvalues --   -0.24779  -0.23356
 Alpha virt. eigenvalues --   -0.12891  -0.05928  -0.03069  -0.01950  -0.01590
 Alpha virt. eigenvalues --   -0.01116  -0.00515  -0.00203   0.00003   0.00066
 Alpha virt. eigenvalues --    0.00447   0.00532   0.00822   0.00990   0.01337

  Beta  occ. eigenvalues --  -19.18383 -19.15345 -19.12992 -14.30665 -10.29709
  Beta  occ. eigenvalues --  -10.28366 -10.27409 -10.22439 -10.21348 -10.21238
  Beta  occ. eigenvalues --  -10.20788 -10.20428 -10.20247 -10.20051 -10.19985
  Beta  occ. eigenvalues --  -10.18852 -10.18802 -10.17753 -10.17674 -10.17552
  Beta  occ. eigenvalues --  -10.17511 -10.17206 -10.16255 -10.16180 -10.16161
  Beta  occ. eigenvalues --  -10.16025 -10.15946 -10.15929 -10.15924 -10.15919
  Beta  occ. eigenvalues --  -10.15914 -10.15908 -10.15902 -10.15895 -10.15888
  Beta  occ. eigenvalues --  -10.15881 -10.15524  -1.11399  -1.07110  -1.06561
  Beta  occ. eigenvalues --   -0.91922  -0.89523  -0.86073  -0.83983  -0.81492
  Beta  occ. eigenvalues --   -0.80866  -0.79882  -0.79016  -0.78295  -0.77885
  Beta  occ. eigenvalues --   -0.76569  -0.75763  -0.74980  -0.73692  -0.71552
  Beta  occ. eigenvalues --   -0.70493  -0.68765  -0.67169  -0.65703  -0.64795
  Beta  occ. eigenvalues --   -0.63214  -0.61825  -0.61042  -0.60906  -0.59642
  Beta  occ. eigenvalues --   -0.58330  -0.58027  -0.57791  -0.57654  -0.57477
  Beta  occ. eigenvalues --   -0.57018  -0.56946  -0.54690  -0.52483  -0.51784
  Beta  occ. eigenvalues --   -0.50223  -0.49490  -0.48736  -0.48615  -0.48177
  Beta  occ. eigenvalues --   -0.47711  -0.47137  -0.46972  -0.46292  -0.45980
  Beta  occ. eigenvalues --   -0.45613  -0.45505  -0.44817  -0.44531  -0.43921
  Beta  occ. eigenvalues --   -0.43395  -0.43344  -0.42787  -0.42725  -0.42272
  Beta  occ. eigenvalues --   -0.42120  -0.41826  -0.41160  -0.41058  -0.40785
  Beta  occ. eigenvalues --   -0.40343  -0.40061  -0.39332  -0.38531  -0.38305
  Beta  occ. eigenvalues --   -0.38229  -0.37891  -0.37444  -0.37385  -0.36678
  Beta  occ. eigenvalues --   -0.36268  -0.36007  -0.34848  -0.34761  -0.34686
  Beta  occ. eigenvalues --   -0.34383  -0.34240  -0.33507  -0.33420  -0.32791
  Beta  occ. eigenvalues --   -0.32645  -0.32378  -0.32181  -0.32178  -0.32017
  Beta  occ. eigenvalues --   -0.31914  -0.31896  -0.31423  -0.30798  -0.29382
  Beta  occ. eigenvalues --   -0.29121  -0.28545  -0.28272  -0.27111  -0.25998
  Beta  occ. eigenvalues --   -0.24779  -0.23356
  Beta virt. eigenvalues --   -0.12891  -0.05928  -0.03069  -0.01950  -0.01590
  Beta virt. eigenvalues --   -0.01116  -0.00515  -0.00203   0.00003   0.00066
  Beta virt. eigenvalues --    0.00447   0.00532   0.00822   0.00990   0.01337

 Mulliken charges and spin densities:
               1          2
     1  C    0.154053   0.000000
     2  C   -0.495597   0.000000
     3  C   -0.447390   0.000000
     4  C    0.455529   0.000000
     5  C    0.345639  -0.000000
     6  C   -0.061794  -0.000000
     7  C   -0.299294  -0.000000
     8  C   -0.333177  -0.000000
     9  C    0.421758   0.000000
    10  C   -0.091808  -0.000000
    11  O   -0.305886   0.000000
    12  O   -0.213663   0.000000
    13  O   -0.211267  -0.000000
    14  H    0.212043   0.000000
    15  H    0.202730  -0.000000
    16  H    0.216036  -0.000000
    17  H    0.198907   0.000000
    18  H    0.314975   0.000000
    19  C    0.440176   0.000000
    20  C   -0.366177  -0.000000
    21  C   -0.164562  -0.000000
    22  C   -0.305898   0.000000
    23  C   -0.391170  -0.000000
    24  C   -0.368088   0.000000
    25  H    0.183590  -0.000000
    26  H    0.186610   0.000000
    27  H    0.205142   0.000000
    28  H    0.198033   0.000000
    29  H    0.174439  -0.000000
    30  C   -0.081980   0.000000
    31  H    0.263169  -0.000000
    32  N    0.009224   0.000000
    33  C   -0.783737  -0.000000
    34  C   -0.755334   0.000000
    35  C    0.162921   0.000000
    36  C   -0.084996  -0.000000
    37  C   -0.139132   0.000000
    38  C   -0.251529   0.000000
    39  H    0.304595   0.000000
    40  H    0.186792  -0.000000
    41  H    0.224486   0.000000
    42  H    0.145907   0.000000
    43  H    0.126943   0.000000
    44  H    0.109928   0.000000
    45  H    0.115725   0.000000
    46  H    0.126462  -0.000000
    47  H    0.128492  -0.000000
    48  H    0.132147  -0.000000
    49  H    0.132320  -0.000000
    50  H    0.132487  -0.000000
    51  H    0.131092  -0.000000
    52  C   -0.397664  -0.000000
    53  C   -0.405311  -0.000000
    54  C   -0.341364   0.000000
    55  C   -0.190540  -0.000000
    56  C   -0.041918  -0.000000
    57  C   -0.021465  -0.000000
    58  C   -0.187706   0.000000
    59  C   -0.391521  -0.000000
    60  C   -0.261893   0.000000
    61  C   -0.690269  -0.000000
    62  H    0.129801  -0.000000
    63  H    0.130484  -0.000000
    64  H    0.129086   0.000000
    65  H    0.128920   0.000000
    66  H    0.129655  -0.000000
    67  H    0.129876  -0.000000
    68  H    0.130238  -0.000000
    69  H    0.129702  -0.000000
    70  H    0.128407  -0.000000
    71  H    0.128377  -0.000000
    72  H    0.128753  -0.000000
    73  H    0.128497  -0.000000
    74  H    0.126365  -0.000000
    75  H    0.126463  -0.000000
    76  H    0.123276   0.000000
    77  H    0.123128   0.000000
    78  H    0.131093   0.000000
    79  H    0.131085   0.000000
    80  H    0.139932   0.000000
    81  H    0.146700   0.000000
    82  H    0.139944   0.000000
 Sum of Mulliken charges =  -0.00000   0.00000

 Dipole moment (field-independent basis, Debye):
    X=             -0.8464    Y=              4.6544    Z=             -0.3782  Tot=              4.7458
 Quadrupole moment (field-independent basis, Debye-Ang):
   XX=           -221.0135   YY=           -217.6048   ZZ=           -227.2732
   XY=            -27.8362   XZ=              7.7130   YZ=             -5.8575

 Normal termination of Gaussian 16 at Thu Jan 25 06:07:53 2024.
