 Gaussian 16, Revision A.03,
 Gaussian 16:  ES64L-G16RevA.03 25-Dec-2016

 ----------------------------------------------------------------
 #P UB3LYP/6-311++G(d,p) SCRF=(PCM,Solvent=n,n-DiMethylFormamide)
 ----------------------------------------------------------------

 ------------------
 Quinone PCM in DMF
 ------------------
 Symbolic Z-matrix:
 Charge =  0 Multiplicity = 1

                         Standard orientation:
 ---------------------------------------------------------------------
 Center     Atomic      Atomic             Coordinates (Angstroms)
 Number     Number       Type             X           Y           Z
 ---------------------------------------------------------------------
      1          6           0       -1.597168    2.479561    0.000025
      2          6           0       -2.969497    2.278844   -0.000162
      3          6           0       -3.494366    0.991673   -0.000252
      4          6           0       -0.740644    1.378585    0.000089
      5          6           0       -1.238654    0.055351    0.000019
      6          6           0       -2.650421   -0.128235   -0.000135
      7          6           0        0.721593    1.656266    0.000118
      8          6           0        1.646930    0.534449    0.000060
      9          6           0        1.152966   -0.802169   -0.000004
     10          6           0       -0.290943   -1.086840    0.000214
     11          6           0        3.032635    0.778573    0.000042
     12          6           0        3.926094   -0.314283   -0.000033
     13          6           0        2.064735   -1.872508   -0.000127
     14          6           0        3.452967   -1.602607   -0.000151
     15          8           0        1.128501    2.830805   -0.000040
     16          8           0       -0.682076   -2.264218    0.000445
     17          8           0        3.555945    2.010557    0.000120
     18          1           0       -1.166937    3.471704    0.000050
     19          1           0       -3.644047    3.127550   -0.000261
     20          1           0       -4.566887    0.859315   -0.000401
     21          8           0       -3.127151   -1.386541   -0.000157
     22          1           0        2.795114    2.643904    0.000212
     23          8           0        1.691271   -3.157792   -0.000259
     24          1           0        4.130589   -2.448004   -0.000236
     25          1           0        4.989035   -0.105364   -0.000040
     26          1           0        0.698617   -3.156580   -0.000326
     27          6           0       -4.533941   -1.609725    0.000180
     28          1           0       -4.651116   -2.691406    0.000373
     29          1           0       -5.005209   -1.192743   -0.895517
     30          1           0       -5.004798   -1.192473    0.895969
 ---------------------------------------------------------------------

 SCF Done:  E(UB3LYP) =  -954.030408674     A.U. after   15 cycles

 The electronic state is 1-A.
 Alpha  occ. eigenvalues --  -19.17443 -19.16577 -19.16185 -19.13835 -19.13347
 Alpha  occ. eigenvalues --  -10.28876 -10.28825 -10.27045 -10.26829 -10.26611
 Alpha  occ. eigenvalues --  -10.22995 -10.21464 -10.21415 -10.21036 -10.20963
 Alpha  occ. eigenvalues --  -10.20468 -10.20355 -10.20287 -10.19841 -10.19326
 Alpha  occ. eigenvalues --   -1.09686  -1.09416  -1.09013  -1.06139  -1.05694
 Alpha  occ. eigenvalues --   -0.89554  -0.87935  -0.82045  -0.78848  -0.77983
 Alpha  occ. eigenvalues --   -0.76697  -0.72162  -0.70242  -0.66833  -0.66721
 Alpha  occ. eigenvalues --   -0.63241  -0.59928  -0.57834  -0.56531  -0.55572
 Alpha  occ. eigenvalues --   -0.54235  -0.52512  -0.51156  -0.49870  -0.48810
 Alpha  occ. eigenvalues --   -0.48527  -0.46906  -0.46886  -0.46600  -0.45803
 Alpha  occ. eigenvalues --   -0.44069  -0.43626  -0.43385  -0.43010  -0.42803
 Alpha  occ. eigenvalues --   -0.40461  -0.40074  -0.39721  -0.38879  -0.38643
 Alpha  occ. eigenvalues --   -0.38242  -0.35478  -0.34582  -0.33491  -0.29610
 Alpha  occ. eigenvalues --   -0.29561  -0.28276  -0.27571  -0.25331  -0.23342
 Alpha virt. eigenvalues --   -0.12351  -0.06617  -0.04328  -0.01123  -0.00717
 Alpha virt. eigenvalues --    0.00117   0.00555   0.01308   0.01691   0.02983
 Alpha virt. eigenvalues --    0.03009   0.03274   0.03349   0.03858   0.03977

  Beta  occ. eigenvalues --  -19.17443 -19.16577 -19.16185 -19.13835 -19.13347
  Beta  occ. eigenvalues --  -10.28876 -10.28825 -10.27045 -10.26829 -10.26611
  Beta  occ. eigenvalues --  -10.22995 -10.21464 -10.21415 -10.21036 -10.20963
  Beta  occ. eigenvalues --  -10.20468 -10.20355 -10.20287 -10.19841 -10.19326
  Beta  occ. eigenvalues --   -1.09686  -1.09416  -1.09013  -1.06139  -1.05694
  Beta  occ. eigenvalues --   -0.89554  -0.87935  -0.82045  -0.78848  -0.77983
  Beta  occ. eigenvalues --   -0.76697  -0.72162  -0.70242  -0.66833  -0.66721
  Beta  occ. eigenvalues --   -0.63241  -0.59928  -0.57834  -0.56531  -0.55572
  Beta  occ. eigenvalues --   -0.54235  -0.52512  -0.51156  -0.49870  -0.48810
  Beta  occ. eigenvalues --   -0.48527  -0.46906  -0.46886  -0.46600  -0.45803
  Beta  occ. eigenvalues --   -0.44069  -0.43626  -0.43385  -0.43010  -0.42803
  Beta  occ. eigenvalues --   -0.40461  -0.40074  -0.39721  -0.38879  -0.38643
  Beta  occ. eigenvalues --   -0.38242  -0.35478  -0.34582  -0.33491  -0.29610
  Beta  occ. eigenvalues --   -0.29561  -0.28276  -0.27571  -0.25331  -0.23342
  Beta virt. eigenvalues --   -0.12351  -0.06617  -0.04328  -0.01123  -0.00717
  Beta virt. eigenvalues --    0.00117   0.00555   0.01308   0.01691   0.02983
  Beta virt. eigenvalues --    0.03009   0.03274   0.03349   0.03858   0.03977

 Mulliken charges and spin densities:
               1          2
     1  C   -0.176604   0.000000
     2  C   -0.371267  -0.000000
     3  C    0.042372   0.000000
     4  C    0.211976  -0.000000
     5  C    0.160114   0.000000
     6  C    0.071492   0.000000
     7  C   -0.389918  -0.000000
     8  C    0.335082  -0.000000
     9  C    0.715158   0.000000
    10  C   -0.456846  -0.000000
    11  C   -0.290942  -0.000000
    12  C    0.011567  -0.000000
    13  C   -0.343015  -0.000000
    14  C   -0.089425   0.000000
    15  O   -0.336241   0.000000
    16  O   -0.346647   0.000000
    17  O   -0.325925  -0.000000
    18  H    0.184737   0.000000
    19  H    0.222686  -0.000000
    20  H    0.209435   0.000000
    21  O   -0.144375   0.000000
    22  H    0.347172   0.000000
    23  O   -0.342421   0.000000
    24  H    0.229014   0.000000
    25  H    0.229620   0.000000
    26  H    0.375347  -0.000000
    27  C   -0.279709  -0.000000
    28  H    0.206055   0.000000
    29  H    0.170747  -0.000000
    30  H    0.170764   0.000000
 Sum of Mulliken charges =  -0.00000  -0.00000

 Dipole moment (field-independent basis, Debye):
    X=             -5.4906    Y=              0.9206    Z=             -0.0002  Tot=              5.5673
 Quadrupole moment (field-independent basis, Debye-Ang):
   XX=            -82.5724   YY=           -126.5375   ZZ=           -116.4377
   XY=             -8.8355   XZ=              0.0005   YZ=              0.0024

 Normal termination of Gaussian 16 at Tue Jan 16 05:06:42 2024.
