 Q-Chem 5.4, Q-Chem, Inc., Pleasanton, CA (2021)
 Q-Chem 5.4.0 for Intel X86 EM64T Linux

User input:
--------------------------------------------------------------
$molecule
0 1
C                  4.8975170000     -2.9383040000     -0.3196230000
C                  5.6598390000     -2.0708940000     -1.0877620000
C                  5.1258520000     -0.8668580000     -1.5321180000
C                  3.5853520000     -2.5960030000      0.0072350000
C                  3.0091740000     -1.3801170000     -0.4270480000
C                  3.8090350000     -0.5042640000     -1.2143820000
C                  2.8165550000     -3.5663070000      0.8334940000
C                  1.4450440000     -3.2452880000      1.1949150000
C                  0.8570880000     -2.0218840000      0.7611630000
C                  1.6091880000     -1.0560860000     -0.0558370000
C                  0.7034960000     -4.1511180000      1.9755250000
C                 -0.6273790000     -3.8341860000      2.3232740000
C                 -0.4704430000     -1.7308460000      1.1215860000
C                 -1.1960690000     -2.6565860000      1.9067660000
O                  3.3509420000     -4.6271520000      1.1997670000
O                  1.0625510000     -0.0014710000     -0.4138620000
O                  1.2008610000     -5.3145670000      2.4121630000
H                  5.2922780000     -3.8799060000      0.0367430000
H                  6.6806870000     -2.3272610000     -1.3475000000
H                  5.7383470000     -0.2066120000     -2.1293980000
O                  3.2632110000      0.6536440000     -1.6290280000
H                  2.1314270000     -5.3702010000      2.0790810000
O                 -1.1023720000     -0.6079380000      0.7594050000
H                 -2.2167330000     -2.4043050000      2.1684260000
H                 -1.1814300000     -4.5446310000      2.9247600000
H                 -0.4510870000     -0.0859820000      0.2220490000
C                  4.0329620000      1.5556340000     -2.4181840000
H                  3.3720590000      2.3969640000     -2.6160080000
H                  4.3353750000      1.0995970000     -3.3662440000
H                  4.9169300000      1.9067590000     -1.8763760000
$end
$rem
MAX_SCF_CYCLES=200
BASIS  =  6-311++G(d,p)
GUI  =  2
JOB_TYPE  =  SP
METHOD  =  B3LYP
SOLVENT_METHOD = PCM
$end
$pcm
theory = CPCM
$end
$solvent
dielectric 37.219
opticaldielectric 1.43
$end

--------------------------------------------------------------

             Standard Nuclear Orientation (Angstroms)
    I     Atom           X                Y                Z
 ----------------------------------------------------------------
    1      C       4.8975170000    -2.9383040000    -0.3196230000
    2      C       5.6598390000    -2.0708940000    -1.0877620000
    3      C       5.1258520000    -0.8668580000    -1.5321180000
    4      C       3.5853520000    -2.5960030000     0.0072350000
    5      C       3.0091740000    -1.3801170000    -0.4270480000
    6      C       3.8090350000    -0.5042640000    -1.2143820000
    7      C       2.8165550000    -3.5663070000     0.8334940000
    8      C       1.4450440000    -3.2452880000     1.1949150000
    9      C       0.8570880000    -2.0218840000     0.7611630000
   10      C       1.6091880000    -1.0560860000    -0.0558370000
   11      C       0.7034960000    -4.1511180000     1.9755250000
   12      C      -0.6273790000    -3.8341860000     2.3232740000
   13      C      -0.4704430000    -1.7308460000     1.1215860000
   14      C      -1.1960690000    -2.6565860000     1.9067660000
   15      O       3.3509420000    -4.6271520000     1.1997670000
   16      O       1.0625510000    -0.0014710000    -0.4138620000
   17      O       1.2008610000    -5.3145670000     2.4121630000
   18      H       5.2922780000    -3.8799060000     0.0367430000
   19      H       6.6806870000    -2.3272610000    -1.3475000000
   20      H       5.7383470000    -0.2066120000    -2.1293980000
   21      O       3.2632110000     0.6536440000    -1.6290280000
   22      H       2.1314270000    -5.3702010000     2.0790810000
   23      O      -1.1023720000    -0.6079380000     0.7594050000
   24      H      -2.2167330000    -2.4043050000     2.1684260000
   25      H      -1.1814300000    -4.5446310000     2.9247600000
   26      H      -0.4510870000    -0.0859820000     0.2220490000
   27      C       4.0329620000     1.5556340000    -2.4181840000
   28      H       3.3720590000     2.3969640000    -2.6160080000
   29      H       4.3353750000     1.0995970000    -3.3662440000
   30      H       4.9169300000     1.9067590000    -1.8763760000
 ----------------------------------------------------------------

    9    -954.0357697505      3.56e-06  Convergence criterion met
 Total energy in the final basis set =     -954.0357697505

                    Orbital Energies (a.u.)
 --------------------------------------------------------------

 Alpha MOs
 -- Occupied --
-19.1719 -19.1643 -19.1605 -19.1367 -19.1322 -10.2874 -10.2866 -10.2678
-10.2663 -10.2642 -10.2241 -10.2123 -10.2118 -10.2085 -10.2077 -10.2017
-10.2005 -10.1994 -10.1948 -10.1904  -1.0946  -1.0925  -1.0884  -1.0599
 -1.0557  -0.8932  -0.8769  -0.8179  -0.7856  -0.7771  -0.7649  -0.7177
 -0.7001  -0.6657  -0.6645  -0.6302  -0.5963  -0.5756  -0.5624  -0.5534
 -0.5406  -0.5225  -0.5085  -0.4958  -0.4845  -0.4824  -0.4669  -0.4664
 -0.4648  -0.4555  -0.4376  -0.4348  -0.4318  -0.4266  -0.4260  -0.4032
 -0.3973  -0.3944  -0.3861  -0.3843  -0.3803  -0.3518  -0.3428  -0.3333
 -0.2942  -0.2941  -0.2802  -0.2743  -0.2510  -0.2317

          Ground-State Mulliken Net Atomic Charges

     Atom                 Charge (a.u.)
  ----------------------------------------
      1 C                    -0.185512
      2 C                    -0.368463
      3 C                     0.043482
      4 C                     0.187086
      5 C                     0.134473
      6 C                     0.060964
      7 C                    -0.380539
      8 C                     0.348907
      9 C                     0.716323
     10 C                    -0.443227
     11 C                    -0.269888
     12 C                    -0.013664
     13 C                    -0.328652
     14 C                    -0.109031
     15 O                    -0.349079
     16 O                    -0.361568
     17 O                    -0.338632
     18 H                     0.194531
     19 H                     0.238060
     20 H                     0.231116
     21 O                    -0.155678
     22 H                     0.358388
     23 O                    -0.355605
     24 H                     0.245522
     25 H                     0.246324
     26 H                     0.386690
     27 C                    -0.304578
     28 H                     0.212565
     29 H                     0.179841
     30 H                     0.179844
  ----------------------------------------
  Sum of atomic charges =     0.000000

                    Cartesian Multipole Moments
 -----------------------------------------------------------------
    Charge (ESU x 10^10)
                 0.0000
    Dipole Moment (Debye)
         X       4.3670      Y       2.2387      Z      -2.9196
       Tot       5.7102
    Quadrupole Moments (Debye-Ang)
        XX     -78.6103     XY      12.4781     YY    -128.0502
        XZ     -21.5505     YZ       1.4016     ZZ    -108.8323

 Total job time:  66.92s(wall), 473.54s(cpu)
        *  Thank you very much for using Q-Chem.  Have a nice day.  *
